# vtk DataFile Version 4.0
vtk output
ASCII
DATASET POLYDATA
POINTS 1258 float
0.0477912 4.82274 -7.38239 0.170515 4.50886 -6.73791 0.576596 4.68325 -7.16849 
-0.32091 4.28173 -6.80011 0.692061 4.93323 -8.038 1.09652 4.43483 -7.4156 
1.36746 4.40404 -8.13905 0.00291925 4.92692 -8.23159 -0.405174 4.41579 -7.7306 
1.03966 4.82349 -8.8308 1.34783 4.2007 -8.96486 0.371537 4.89034 -8.93872 
-0.422411 4.39225 -8.7214 0.826723 4.55454 -9.33359 0.0714574 4.36473 -9.43173 
0.765009 3.76161 -5.94542 0.981995 3.31521 -5.49444 1.34313 3.39388 -6.07415 
0.115489 4.03088 -6.22108 0.0559996 3.30481 -5.48246 -0.549584 3.53066 -6.14512 
0.852774 4.11875 -6.63923 1.57781 3.58216 -7.16866 -0.697307 3.64487 -7.0078 
1.70928 3.62886 -8.33988 -0.731468 3.68004 -7.9597 1.48351 3.49494 -9.15131 
-0.946593 3.67907 -8.63191 -1.05613 3.98775 -9.3903 -1.46936 3.17868 -8.87812 
0.825 3.84026 -9.61808 -0.201683 3.97066 -10.0578 0.574258 3.50968 -10.3581 
-1.20361 4.06447 -10.1861 -1.91617 3.54458 -9.54509 -1.9498 3.86888 -10.1017 
-2.35708 3.32777 -10.0433 0.121078 3.84792 -11.0092 0.65628 3.55928 -11.099 
-0.725689 3.91791 -11.0381 -1.72922 3.85666 -10.8814 -2.41723 3.29349 -10.8506 
0.659778 3.82724 -11.9648 1.15909 3.43464 -11.6034 1.44384 3.51522 -12.3605 
-0.0841336 3.86272 -11.973 -0.643007 3.60075 -11.9267 -1.3393 3.5403 -11.6161 
-2.0647 3.38847 -11.5324 0.874959 3.88139 -13.0453 1.53545 3.52874 -13.292 
0.168969 3.86553 -12.9857 -0.456137 3.50931 -12.7485 0.853767 3.9001 -14.0677 
1.50428 3.5494 -14.3222 0.167593 3.88805 -14.0195 -0.464096 3.50751 -13.7626 
0.855288 3.935 -15.1043 1.52543 3.57082 -15.3746 0.146965 3.92663 -15.0565 
-0.518946 3.54505 -14.814 1.01298 3.8359 -15.884 1.53065 3.40796 -16.1334 
0.341359 3.86497 -15.9476 -0.437215 3.56749 -15.7873 0.848339 3.31069 -16.4366 
-0.19791 3.29054 -16.4177 0.674473 2.90508 -5.01194 1.10922 2.4232 -4.68572 
1.47849 2.67478 -5.35373 0.0525771 2.86409 -4.96606 0.315023 2.48947 -4.57237 
-0.421899 2.5802 -4.93 1.77573 2.75957 -6.24356 -1.06907 2.92267 -6.37391 
-0.883637 2.76406 -5.58329 -1.39027 2.22395 -5.82807 1.99195 2.82385 -6.96039 
2.13428 2.31081 -6.44822 2.33885 2.33159 -7.09951 -1.04431 3.0089 -7.3275 
-1.40265 2.33316 -6.79272 2.05953 2.99826 -7.78459 2.41528 2.36631 -8.04013 
-1.08277 3.16323 -8.14259 -1.38433 2.47489 -7.93143 1.9479 2.98418 -8.94147 
2.39827 2.3628 -9.07657 -1.65356 2.21834 -8.88847 1.89715 2.84877 -10.0462 
2.38709 2.37048 -10.0899 1.28595 3.18574 -9.86361 -2.06708 2.78689 -9.52981 
-2.46056 2.5134 -10.1791 2.00558 2.84159 -10.9024 2.39692 2.40428 -11.0654 
1.2617 3.15464 -10.8681 -2.61255 2.30792 -10.8594 1.98516 3.01718 -11.884 
2.60778 2.37789 -11.9757 -1.14199 3.21395 -12.3882 -1.92011 3.02188 -12.1987 
-2.48928 2.54982 -11.7357 2.73218 2.82989 -12.9469 3.07361 2.17676 -12.5987 
3.35832 2.49571 -13.2704 2.04948 3.18269 -12.8541 -1.13388 3.12775 -13.3212 
-1.8867 2.85195 -13.0638 -2.43851 2.34585 -12.753 2.96058 2.87046 -14.0326 
3.48098 2.39295 -14.0471 2.197 3.15022 -13.7405 -1.19515 3.14697 -14.3621 
-1.93508 2.84855 -14.0596 -2.45047 2.32951 -13.754 3.01255 2.87177 -15.0805 
3.39544 2.32725 -15.0309 2.2201 3.17479 -14.815 -1.1812 3.1734 -15.3971 
-1.95454 2.85489 -15.0987 -2.47522 2.35296 -14.8091 3.11917 2.77478 -15.8834 
3.29988 2.42751 -15.923 2.31131 3.04524 -15.9102 -0.973365 3.11834 -16.1466 
-1.75981 2.78132 -16.0002 -2.41814 2.33464 -15.7833 2.7863 2.47026 -16.3607 
1.78962 2.58388 -16.5027 0.862143 2.35913 -16.6035 -0.048646 2.51122 -16.612 
-1.18203 2.4941 -16.5199 -2.10212 2.234 -16.3739 1.71772 1.86799 1.89717 
2.108 1.20994 2.40568 2.52635 1.58558 1.71367 1.04127 1.82544 1.83344 
1.10719 1.39958 2.3656 0.541998 1.37357 2.05307 1.8862 1.94617 1.0143 
2.57274 1.53837 0.730206 0.96561 1.96511 0.977848 0.453841 1.55686 1.34345 
1.85344 1.83276 0.0623083 2.35935 1.43138 -0.117521 0.992048 2.05673 0.00222273 
0.166149 1.61043 0.540764 0.135734 1.83775 -0.133789 -0.378112 1.30203 -0.159055 
1.81617 1.5873 -0.615054 1.57507 1.53512 -1.35479 1.02793 1.92824 -0.987209 
0.118538 1.91045 -1.05637 -0.365707 1.49997 -0.937479 0.972824 1.91339 -2.16722 
1.661 1.56986 -2.08319 0.119136 1.87067 -2.04654 -0.379797 1.37616 -1.8134 
1.67456 1.83087 -2.94589 2.08565 1.33124 -2.42475 2.32727 1.35312 -3.11315 
0.794463 2.03304 -3.18777 -0.106267 1.89353 -3.12137 -0.509464 1.25929 -2.83959 
2.02374 1.82975 -3.81407 2.41213 1.33505 -4.03642 1.14523 2.11823 -4.00277 
-0.109295 2.13367 -4.09163 -0.88014 1.48535 -3.58514 -0.960194 1.79717 -4.13324 
-1.29976 1.24607 -4.08026 1.88865 1.98453 -4.70828 2.38964 1.32957 -5.00738 
-1.04194 2.1397 -4.94974 -1.46375 1.44685 -4.93098 2.05897 2.05912 -5.68137 
2.41272 1.51656 -6.07417 -1.55952 1.4661 -6.02623 2.53088 1.4854 -7.04222 
-1.50776 1.51082 -7.05315 2.55714 1.50595 -8.04151 -1.48996 1.49231 -8.06047 
2.55033 1.51937 -9.05409 -1.64141 1.21117 -8.91824 2.52711 1.53532 -10.0672 
-2.05447 1.76811 -9.5416 -2.43609 1.46365 -10.1857 2.52808 1.54747 -11.0679 
-2.5919 1.43146 -11.048 2.65316 1.39004 -12.0261 -2.60192 1.45765 -12.0561 
2.99494 1.42623 -12.6831 3.40909 1.84446 -13.1619 -2.58653 1.47874 -13.0815 
3.40086 1.64058 -13.9374 -2.47635 1.50158 -14.1957 2.95266 1.36802 -14.5094 
3.08774 1.92406 -15.4084 2.53176 1.32974 -15.0401 -2.46891 1.64803 -15.3854 
2.95896 2.02778 -16.1088 2.49702 1.50383 -15.7519 -2.37541 1.73539 -16.1541 
2.27028 1.78523 -16.3911 1.17778 1.47275 -16.6809 0.0224459 1.64991 -16.7465 
-1.10019 1.51984 -16.6734 -1.87402 1.72973 -16.4847 -2.25238 0.828749 2.85335 
-2.27002 0.402429 3.29391 -1.58392 0.347303 2.79714 -3.10838 0.751437 2.80703 
-2.82484 0.552316 3.2981 -3.26733 0.408134 2.84919 3.80824 0.826878 1.92966 
3.85898 0.22906 2.30497 4.32577 0.540759 1.78241 3.05331 1.14991 2.07248 
2.96061 0.478115 2.48539 1.87849 0.323909 2.61029 1.01209 0.486143 2.57413 
-0.204742 1.01353 1.82311 0.0741827 0.569493 2.43466 -1.25482 0.886757 2.09706 
-0.744466 0.497097 2.47375 -2.19678 1.0357 1.84509 -2.98846 0.906849 1.98606 
-3.3684 0.506679 1.99394 4.00288 0.808161 1.09244 4.33248 0.431325 1.22763 
3.27003 1.1849 1.27966 -0.240726 1.20044 0.774682 -0.811239 0.995264 1.13261 
-1.72137 0.89328 0.913393 -2.76949 0.850113 1.03871 -3.29101 0.626863 1.16272 
3.95559 0.55824 0.565193 3.55729 0.297508 -0.00954212 3.13815 0.995854 0.114555 
-0.91794 0.860928 0.116835 -1.59866 0.543817 0.0772589 -2.4293 0.404836 0.40715 
-3.04805 0.534481 0.680823 2.88129 0.756544 -0.967864 3.35022 0.114547 -1.13701 
2.26312 1.19481 -0.837945 -0.675834 0.809508 -1.00842 -1.16212 0.409646 -0.473942 
2.83058 0.558617 -1.65408 2.58861 0.688581 -2.38916 2.18549 1.05895 -1.69967 
-0.630394 0.583377 -2.06204 2.67873 0.63172 -3.33597 -0.727566 0.443649 -2.84108 
2.64761 0.412184 -4.31993 -1.00365 0.792523 -3.50665 -1.4 0.400436 -3.98595 
2.51547 0.604135 -5.19359 -1.53934 0.455156 -5.04974 2.5013 0.456739 -5.98354 
-1.51491 0.466278 -6.05886 2.50717 0.456725 -6.97487 -1.47863 0.492555 -7.05998 
2.52132 0.479648 -7.99832 -1.47566 0.481768 -8.06784 2.52404 0.490207 -9.02199 
-1.59863 0.194657 -9.10228 2.50709 0.513282 -10.048 -2.00599 0.785821 -9.61293 
-2.3231 0.570223 -10.372 2.49125 0.512583 -11.0602 -2.41824 0.548668 -11.3239 
2.48872 0.349184 -11.8815 -2.41682 0.597198 -12.3335 3.06174 1.06973 -13.3189 
2.62499 0.537177 -12.7479 -2.32875 0.738907 -13.2733 3.05937 1.05202 -13.8895 
2.55433 0.378879 -13.8615 -2.09279 0.819718 -13.9858 -1.69 0.344726 -14.1165 
-1.90838 0.321422 -13.4651 2.16539 0.669801 -14.6233 1.9663 0.891825 -15.3055 
1.68671 0.25234 -15.013 -2.05533 0.989329 -14.842 -1.63995 0.351132 -15.0664 
1.82979 1.05294 -16.1366 1.60297 0.30667 -15.7829 -1.91745 1.05305 -16.0161 
-1.62618 0.23507 -15.9103 1.35284 0.369463 -16.843 0.783479 0.948507 -17.2157 
0.191925 1.18582 -17.0964 -0.691214 0.948075 -17.2732 -1.45264 0.454582 -16.7544 
0.848482 0.50312 -17.6187 0.47158 0.156136 -18.1674 0.120753 0.790809 -17.7922 
-0.528866 0.488615 -17.991 -1.0649 0.163172 -17.5646 -0.0633373 0.284063 -18.3325 
-2.29963 0.106355 2.86666 -2.82149 0.222025 3.1151 4.14189 0.0655139 1.72712 
3.59457 -0.371168 2.07389 2.92496 -0.590429 2.41942 1.99979 -0.51205 2.58287 
1.12415 -0.361301 2.5699 0.0927053 -0.508231 2.41057 -0.975352 -0.203395 2.4071 
-2.06768 -0.16777 2.1209 -1.4645 -0.700853 1.91139 -2.9591 0.109844 2.31465 
4.04226 0.146375 0.921035 3.57829 -0.494471 1.00125 -2.08076 -0.711245 1.46167 
-2.88069 0.0284134 1.09911 -2.50521 -0.777999 0.943614 3.55086 -0.374193 -0.195655 
-1.8703 0.0212619 -0.378531 -2.5476 -0.503482 0.210327 3.55098 -0.68432 -0.887199 
-1.1011 0.159487 -1.15554 -1.71891 -0.264847 -1.21408 -2.3636 -0.751939 -0.867811 
3.09254 0.160805 -2.00071 3.44666 -0.541617 -1.92235 -1.07829 -0.07119 -2.1367 
-1.65864 -0.482589 -1.92395 -2.11901 -0.689367 -1.5577 3.05274 0.0276615 -2.79102 
3.40691 -0.658174 -3.02643 -1.05793 0.105932 -3.11617 -1.50197 -0.436345 -2.92589 
3.02923 -0.0954526 -3.70525 3.30546 -0.859304 -3.9134 -1.61598 -0.539425 -4.14269 
2.92574 -0.449888 -4.34827 2.61358 -0.421161 -5.01856 -1.50324 -0.386647 -5.17247 
2.47978 -0.593285 -5.99569 -1.46917 -0.554172 -6.00144 2.46587 -0.573849 -6.99239 
-1.4543 -0.545318 -7.02189 2.47884 -0.55259 -7.99321 -1.46255 -0.523996 -8.05372 
2.49267 -0.547559 -9.01446 -1.47262 -0.672734 -8.90879 2.48984 -0.517568 -10.048 
-1.91788 0.119302 -9.95464 -1.59548 -0.533904 -9.93365 2.475 -0.513338 -11.0657 
-2.00124 -0.0612392 -10.7705 -1.62118 -0.677931 -11.0484 2.48023 -0.502411 -12.0513 
-2.01327 -0.0730527 -11.7709 -1.6138 -0.665706 -12.0457 2.49292 -0.521611 -13.0494 
-1.98296 0.0372838 -12.7153 -1.57969 -0.460238 -13.0999 2.38822 -0.790911 -14.1066 
-1.48114 -0.499946 -14.0557 1.96475 -0.180594 -14.5973 1.69833 -0.398338 -15.3654 
-1.53254 -0.539739 -15.0435 1.66483 -0.63604 -16.3442 -1.57284 -0.53888 -16.0337 
1.38751 -0.740697 -17.1112 -1.38911 -0.48783 -16.9514 0.930962 -0.443613 -17.6557 
0.387832 -0.633315 -18.1046 -0.563716 -0.283596 -18.0376 -1.07972 -0.445642 -17.5472 
0.0718978 -0.290724 -18.3565 3.03406 -0.973396 1.74349 2.51277 -1.53913 1.91053 
[...]
CELL_DATA 2512
SCALARS scalars float
LOOKUP_TABLE default
14 14 14 14 14 14 14 14 14 
14 14 14 14 14 14 14 14 14 
14 14 14 14 14 14 14 14 14 
14 14 14 14 14 14 14 14 14 
14 14 14 14 14 14 14 14 14 
14 14 14 14 14 14 14 14 14 
14 14 14 14 14 14 14 14 14 
14 14 14 14 14 14 14 14 14 
14 14 14 14 14 14 14 14 14 
14 14 14 14 14 14 14 14 14 
14 14 14 14 14 14 14 14 14 
14 14 14 14 14 14 14 14 14 
14 14 14 14 14 14 14 14 14 
14 14 14 14 14 14 14 14 14 
14 14 14 14 14 14 14 14 14 
14 14 14 14 14 14 14 14 14 
14 14 14 14 14 14 14 14 14 
14 14 14 14 14 14 14 14 14 
14 14 14 14 14 14 14 14 14 
14 14 14 14 14 14 14 14 14 
14 14 14 14 14 14 14 14 14 
14 14 14 14 14 14 14 14 14 
14 14 14 14 14 14 14 14 14 
14 14 14 14 14 14 14 14 14 
14 14 14 14 14 14 14 14 14 
14 14 14 14 14 14 14 14 14 
14 14 14 14 14 14 14 14 14 
14 14 14 14 14 14 14 14 14 
14 14 14 14 14 14 14 14 14 
14 14 14 14 14 14 14 14 14 
14 14 14 14 14 14 14 14 14 
14 14 14 14 14 14 14 14 14 
14 14 14 14 14 14 14 14 14 
14 14 14 14 14 14 14 14 14 
14 14 14 14 14 14 14 14 14 
14 14 14 14 14 14 14 14 14 
14 14 14 14 14 14 14 14 14 
14 14 14 14 14 14 14 14 14 
14 14 14 14 14 14 14 14 14 
14 14 14 14 14 14 14 14 14 
14 14 14 14 14 14 14 14 14 
14 14 14 14 14 14 14 14 14 
14 14 14 14 14 14 14 14 14 
14 14 14 14 14 14 14 14 14 
14 14 14 14 14 14 14 14 14 
14 14 14 14 14 14 14 14 14 
14 14 14 14 14 14 14 14 14 
14 14 14 14 14 14 14 14 14 
14 14 14 14 14 14 14 14 14 
14 14 14 14 14 14 14 14 14 
14 14 14 14 14 14 14 14 14 
14 14 14 14 14 14 14 14 14 
14 14 14 14 14 14 14 14 14 
14 14 14 14 14 14 14 14 14 
14 14 14 14 14 14 14 14 14 
14 14 14 14 14 14 14 14 14 
14 14 14 14 14 14 14 14 14 
14 14 14 14 14 14 14 14 14 
14 14 14 14 14 14 14 14 14 
14 14 14 14 14 14 14 14 14 
14 14 14 14 14 14 14 14 14 
14 14 14 14 14 14 14 14 14 
14 14 14 14 14 14 14 14 14 
14 14 14 14 14 14 14 14 14 
14 14 14 14 14 14 14 14 14 
14 14 14 14 14 14 14 14 14 
14 14 14 14 14 14 14 14 14 
14 14 14 14 14 14 14 14 14 
14 14 14 14 14 14 14 14 14 
14 14 14 14 14 14 14 14 14 
14 14 14 14 14 14 14 14 14 
14 14 14 14 14 14 14 14 14 
14 14 14 14 14 14 14 14 14 
14 14 14 14 14 14 14 14 14 
14 14 14 14 14 14 14 14 14 
14 14 14 14 14 14 14 14 14 
14 14 14 14 14 14 14 14 14 
14 14 14 14 14 14 14 14 14 
14 14 14 14 14 14 14 14 14 
14 14 14 14 14 14 14 14 14 
14 14 14 14 14 14 14 14 14 
14 14 14 14 14 14 14 14 14 
14 14 14 14 14 14 14 14 14 
14 14 14 14 14 14 14 14 14 
14 14 14 14 14 14 14 14 14 
14 14 14 14 14 14 14 14 14 
14 14 14 14 14 14 14 14 14 
14 14 14 14 14 14 14 14 14 
14 14 14 14 14 14 14 14 14 
14 14 14 14 14 14 14 14 14 
14 14 14 14 14 14 14 14 14 
14 14 14 14 14 14 14 14 14 
14 14 14 14 14 14 14 14 14 
14 14 14 14 14 14 14 14 14 
14 14 14 14 14 14 14 14 14 
14 14 14 14 14 14 14 14 14 
14 14 14 14 14 14 14 14 14 
14 14 14 14 14 14 14 14 14 
14 14 14 14 14 14 14 14 14 
14 14 14 14 14 14 14 14 14 
14 14 14 14 14 14 14 14 14 
14 14 14 14 14 14 14 14 14 
14 14 14 14 14 14 14 14 14 
14 14 14 14 14 14 14 14 14 
14 14 14 14 14 14 14 14 14 
14 14 14 14 14 14 14 14 14 
14 14 14 14 14 14 14 14 14 
14 14 14 14 14 14 14 14 14 
14 14 14 14 14 14 14 14 14 
14 14 14 14 14 14 14 14 14 
14 14 14 14 14 14 14 14 14 
14 14 14 14 14 14 14 14 14 
14 14 14 14 14 14 14 14 14 
14 14 14 14 14 14 14 14 14 
14 14 14 14 14 14 14 14 14 
14 14 14 14 14 14 14 14 14 
14 14 14 14 14 14 14 14 14 
14 14 14 14 14 14 14 14 14 
14 14 14 14 14 14 14 14 14 
14 14 14 14 14 14 14 14 14 
14 14 14 14 14 14 14 14 14 
14 14 14 14 14 14 14 14 14 
14 14 14 14 14 14 14 14 14 
14 14 14 14 14 14 14 14 14 
14 14 14 14 14 14 14 14 14 
14 14 14 14 14 14 14 14 14 
14 14 14 14 14 14 14 14 14 
14 14 14 14 14 14 14 14 14 
14 14 14 14 14 14 14 14 14 
14 14 14 14 14 14 14 14 14 
14 14 14 14 14 14 14 14 14 
14 14 14 14 14 14 14 14 14 
14 14 14 14 14 14 14 14 14 
14 14 14 14 14 14 14 14 14 
14 14 14 14 14 14 14 14 14 
14 14 14 14 14 14 14 14 14 
14 14 14 14 14 14 14 14 14 
14 14 14 14 14 14 14 14 14 
14 14 14 14 14 14 14 14 14 
14 14 14 14 14 14 14 14 14 
14 14 14 14 14 14 14 14 14 
14 14 14 14 14 14 14 14 14 
14 14 14 14 14 14 14 14 14 
14 14 14 14 14 14 14 14 14 
14 14 14 14 14 14 14 14 14 
14 14 14 14 14 14 14 14 14 
14 14 14 14 14 14 14 14 14 
14 14 14 14 14 14 14 14 14 
14 14 14 14 14 14 14 14 14 
14 14 14 14 14 14 14 14 14 
14 14 14 14 14 14 14 14 14 
14 14 14 14 14 14 14 14 14 
14 14 14 14 14 14 14 14 14 
14 14 14 14 14 14 14 14 14 
14 14 14 14 14 14 14 14 14 
14 14 14 14 14 14 14 14 14 
14 14 14 14 14 14 14 14 14 
14 14 14 14 14 14 14 14 14 
14 14 14 14 14 14 14 14 14 
14 14 14 14 14 14 14 14 14 
14 14 14 14 14 14 14 14 14 
14 14 14 14 14 14 14 14 14 
14 14 14 14 14 14 14 14 14 
14 14 14 14 14 14 14 14 14 
14 14 14 14 14 14 14 14 14 
14 14 14 14 14 14 14 14 14 
14 14 14 14 14 14 14 14 14 
14 14 14 14 14 14 14 14 14 
14 14 14 14 14 14 14 14 14 
14 14 14 14 14 14 14 14 14 
14 14 14 14 14 14 14 14 14 
14 14 14 14 14 14 14 14 14 
14 14 14 14 14 14 14 14 14 
14 14 14 14 14 14 14 14 14 
14 14 14 14 14 14 14 14 14 
14 14 14 14 14 14 14 14 14 
14 14 14 14 14 14 14 14 14 
14 14 14 14 14 14 14 14 14 
14 14 14 14 14 14 14 14 14 
14 14 14 14 14 14 14 14 14 
14 14 14 14 14 14 14 14 14 
14 14 14 14 14 14 14 14 14 
14 14 14 14 14 14 14 14 14 
14 14 14 14 14 14 14 14 14 
14 14 14 14 14 14 14 14 14 
14 14 14 14 14 14 14 14 14 
14 14 14 14 14 14 14 14 14 
14 14 14 14 14 14 14 14 14 
14 14 14 14 14 14 14 14 14 
14 14 14 14 14 14 14 14 14 
14 14 14 14 14 14 14 14 14 
14 14 14 14 14 14 14 14 14 
14 14 14 14 14 14 14 14 14 
14 14 14 14 14 14 14 14 14 
14 14 14 14 14 14 14 14 14 
14 14 14 14 14 14 14 14 14 
14 14 14 14 14 14 14 14 14 
14 14 14 14 14 14 14 14 14 
14 14 14 14 14 14 14 14 14 
14 14 14 14 14 14 14 14 14 
14 14 14 14 14 14 14 14 14 
14 14 14 14 14 14 14 14 14 
14 14 14 14 14 14 14 14 14 
14 14 14 14 14 14 14 14 14 
14 14 14 14 14 14 14 14 14 
14 14 14 14 14 14 14 14 14 
14 14 14 14 14 14 14 14 14 
14 14 14 14 14 14 14 14 14 
14 14 14 14 14 14 14 14 14 
14 14 14 14 14 14 14 14 14 
14 14 14 14 14 14 14 14 14 
14 14 14 14 14 14 14 14 14 
14 14 14 14 14 14 14 14 14 
14 14 14 14 14 14 14 14 14 
14 14 14 14 14 14 14 14 14 
14 14 14 14 14 14 14 14 14 
14 14 14 14 14 14 14 14 14 
14 14 14 14 14 14 14 14 14 
14 14 14 14 14 14 14 14 14 
14 14 14 14 14 14 14 14 14 
14 14 14 14 14 14 14 14 14 
14 14 14 14 14 14 14 14 14 
14 14 14 14 14 14 14 14 14 
14 14 14 14 14 14 14 14 14 
14 14 14 14 14 14 14 14 14 
14 14 14 14 14 14 14 14 14 
14 14 14 14 14 14 14 14 14 
14 14 14 14 14 14 14 14 14 
14 14 14 14 14 14 14 14 14 
14 14 14 14 14 14 14 14 14 
14 14 14 14 14 14 14 14 14 
14 14 14 14 14 14 14 14 14 
14 14 14 14 14 14 14 14 14 
14 14 14 14 14 14 14 14 14 
14 14 14 14 14 14 14 14 14 
14 14 14 14 14 14 14 14 14 
14 14 14 14 14 14 14 14 14 
14 14 14 14 14 14 14 14 14 
14 14 14 14 14 14 14 14 14 
14 14 14 14 14 14 14 14 14 
14 14 14 14 14 14 14 14 14 
14 14 14 14 14 14 14 14 14 
14 14 14 14 14 14 14 14 14 
14 14 14 14 14 14 14 14 14 
14 14 14 14 14 14 14 14 14 
14 14 14 14 14 14 14 14 14 
14 14 14 14 14 14 14 14 14 
14 14 14 14 14 14 14 14 14 
14 14 14 14 14 14 14 14 14 
14 14 14 14 14 14 14 14 14 
14 14 14 14 14 14 14 14 14 
14 14 14 14 14 14 14 14 14 
14 14 14 14 14 14 14 14 14 
14 14 14 14 14 14 14 14 14 
14 14 14 14 14 14 14 14 14 
14 14 14 14 14 14 14 14 14 
14 14 14 14 14 14 14 14 14 
14 14 14 14 14 14 14 14 14 
14 14 14 14 14 14 14 14 14 
14 14 14 14 14 14 14 14 14 
14 14 14 14 14 14 14 14 14 
14 14 14 14 14 14 14 14 14 
14 14 14 14 14 14 14 14 14 
14 14 14 14 14 14 14 14 14 
14 14 14 14 14 14 14 14 14 
14 14 14 14 14 14 14 14 14 
14 14 14 14 14 14 14 14 14 
14 14 14 14 14 14 14 14 14 
14 14 14 14 14 14 14 14 14 
14 14 14 14 14 14 14 14 14 
14 14 14 14 14 14 14 14 14 
14 14 14 14 14 14 14 14 14 
14 14 14 14 14 14 14 14 14 
14 14 14 14 14 14 14 14 14 
14 14 14 14 14 14 14 14 14 
14 14 14 14 14 14 14 14 14 
14 14 14 14 14 14 14 14 14 
14 14 14 14 14 14 14 14 14 
14 14 14 14 14 14 14 14 14 
14 
