# vtk DataFile Version 4.0
vtk output
ASCII
DATASET POLYDATA
POINTS 816 float
0.739869 32.8718 5.85647 1.0831 32.3836 6.50344 1.38157 32.4368 5.91122 
-0.256281 32.9422 5.85589 0.311191 32.5286 6.51341 -1.29389 32.9122 5.82928 
-0.739315 32.5309 6.50618 -2.04579 32.7945 5.74572 -1.72168 32.5209 6.43082 
-2.39535 32.4658 6.06675 0.948653 32.9613 4.96152 1.45472 32.4486 4.94709 
0.0309203 33.0858 4.95321 -1.02599 33.0591 4.94799 -1.94538 32.9108 4.96735 
-2.58242 32.5519 5.20591 1.07023 32.847 4.16181 1.39388 32.2344 3.86096 
0.311154 32.9566 4.06758 -0.734374 32.9271 4.05182 -1.72624 32.8402 4.0764 
-2.52384 32.5532 4.23725 0.735843 32.5661 3.47188 -0.241746 32.5418 3.39566 
-1.30795 32.5203 3.41457 -2.17083 32.4679 3.56214 -3.03562 31.7656 7.64512 
-2.91811 31.4544 8.26939 -2.48579 31.6017 7.83336 -3.40165 31.2621 8.19282 
0.743342 31.9373 6.98972 1.06483 31.3421 7.47615 1.40391 31.574 6.87706 
-0.237596 31.9923 6.97924 0.312008 31.4819 7.46845 -1.28638 31.9856 6.98848 
-0.706732 31.4741 7.45693 -2.36521 32.0227 6.95618 -1.70779 31.4975 7.57424 
-3.09541 31.8885 6.7895 -3.45506 31.4095 7.24418 1.57587 31.5566 5.97255 
-2.97646 32.0493 5.83238 -3.42149 31.4142 6.20601 1.56463 31.5548 4.94192 
-3.09798 32.0555 4.63269 -3.43841 31.3907 5.1665 1.55352 31.3954 4.06745 
-2.9121 32.0539 3.5946 -3.4614 31.3999 4.13154 1.05593 32.0573 3.04585 
1.41655 31.3561 2.96343 0.292883 32.0438 2.90327 -0.764714 32.0213 2.9073 
-1.97401 32.0391 2.99119 -2.84605 31.8099 2.87856 -3.3785 31.4158 3.21335 
0.770105 31.551 2.48167 -0.189325 31.5185 2.41006 -1.27105 31.5253 2.41119 
-2.35145 31.3676 2.38847 -3.0971 31.2981 2.63179 0.749527 30.8176 8.84736 
1.09405 30.3843 9.48739 1.39155 30.3868 8.92398 -0.240832 30.863 8.8117 
0.185689 30.4161 9.46553 -1.32182 30.8345 8.87157 -0.956414 30.3553 9.34119 
-2.24999 30.8255 9.02764 -2.03315 30.3306 9.37115 -2.95957 31.0141 8.77768 
-2.84364 30.4953 9.265 -3.39942 30.4564 8.87897 0.950448 30.9991 8.10842 
1.46023 30.5496 7.93245 0.0634256 31.1338 8.08545 -0.975415 31.1251 8.12204 
-2.10362 31.183 8.36155 -3.60937 30.5268 7.99928 1.54999 30.4998 6.98182 
-3.57308 30.5423 6.94038 1.53655 30.5078 5.97167 -3.54786 30.5096 5.91881 
1.52652 30.5334 4.9489 -3.5678 30.4988 4.91123 1.53751 30.5396 3.93225 
-3.58281 30.5261 3.90319 1.54377 30.3885 3.06461 -3.44785 30.5433 3.02865 
1.06901 31.0421 2.07924 1.39963 30.3595 1.96052 0.32272 31.0277 1.94588 
-0.708317 31.0158 1.92922 -1.70148 30.9457 1.90975 -2.38512 30.6119 1.95791 
-2.97641 30.4216 2.37835 0.71491 30.3714 1.48921 -0.249406 30.3837 1.58741 
-1.26688 30.3483 1.58089 -2.01846 30.2785 1.65999 0.776144 29.9744 9.99066 
1.05881 29.3965 10.5095 1.4382 29.5943 9.89626 -0.0221491 29.8598 9.89728 
0.132499 29.3066 10.48 -0.572849 29.3294 10.0273 1.57493 29.493 8.9899 
-0.769163 29.755 9.66978 -1.7783 29.6088 9.63344 -2.86005 29.7021 9.50441 
-3.49606 29.441 9.03892 1.53582 29.4672 7.98409 -3.58063 29.5064 7.93714 
1.50326 29.4567 6.97711 -3.53437 29.4933 6.91509 1.48756 29.4721 5.96283 
-3.52682 29.481 5.91945 1.49501 29.5015 4.94327 -3.5505 29.4858 4.90552 
1.51749 29.5225 3.93414 -3.56355 29.5138 3.89624 1.53256 29.5216 2.92906 
-3.42587 29.5045 3.0276 1.53206 29.3958 2.07173 -2.54807 29.7845 1.89975 
-3.06685 29.2378 2.3942 1.05347 30.002 0.827848 1.42408 29.5761 0.994098 
0.542792 29.546 0.793001 -0.0505906 29.6363 1.28201 -1.06553 29.4254 1.35517 
-1.91998 29.4971 1.57062 1.12511 29.7588 0.121049 1.31873 29.2416 -0.0185029 
0.803345 29.5557 0.135003 0.956825 29.3218 -0.299405 0.727773 28.9336 11.004 
0.919585 28.2704 11.5153 1.40793 28.5891 10.9074 0.116661 28.8944 10.9739 
0.122912 28.3824 11.3048 -0.470081 28.4884 10.9586 1.5813 28.4896 10.007 
-1.35624 29.0221 9.97588 -0.892667 28.7063 10.4522 -2.33281 28.9368 9.98121 
-1.82634 28.4254 10.4646 -3.10019 28.9563 9.8397 -2.76478 28.4313 10.4081 
-3.41938 28.3589 10.0443 1.53147 28.4557 8.98512 -3.56627 28.4805 8.97177 
1.49064 28.4562 7.96819 -3.52293 28.4754 7.94898 1.4813 28.4577 6.96659 
-3.49924 28.4625 6.95894 1.48206 28.4621 5.96544 -3.50389 28.4596 5.96121 
1.48724 28.4747 4.95833 -3.52978 28.4671 4.93999 1.49854 28.4954 3.94289 
-3.54646 28.4984 3.92781 1.5156 28.5025 2.94026 -3.42433 28.4789 3.05592 
1.52704 28.5472 1.92979 -2.54634 28.771 1.91901 -3.06095 28.2232 2.42424 
1.51824 28.57 0.880383 0.011655 29.0126 0.807815 -0.683714 28.9198 0.97046 
-1.38726 28.4054 0.902054 -1.91147 28.3653 1.44406 1.41908 28.2792 -0.215697 
0.411565 28.6263 -0.0893275 -0.346717 28.4871 0.388089 -1.00841 28.3156 0.471657 
1.0306 28.6265 -0.599221 0.922016 27.7617 11.9477 0.997598 27.1516 12.2454 
1.3787 27.6984 11.7541 0.464214 27.3353 12.0827 1.57573 27.5058 11.028 
0.257715 27.7654 11.7198 -1.3386 28.0211 10.9799 -0.711191 27.658 11.489 
-2.30506 27.9416 10.9875 -1.7964 27.4528 11.5176 -3.07206 27.9706 10.8497 
-2.76501 27.4766 11.4586 -3.42702 27.3739 11.0666 1.53493 27.4436 9.99648 
-3.57728 27.4864 9.9889 1.48829 27.4591 8.96164 -3.52999 27.483 8.95429 
1.48355 27.4665 7.9594 -3.49737 27.4656 7.96126 1.487 27.4646 6.96431 
-3.49543 27.461 6.96992 1.48773 27.4623 5.96763 -3.50221 27.4592 5.96865 
1.48753 27.464 4.96666 -3.52722 27.468 4.94622 1.48988 27.4687 3.96128 
-3.543 27.504 3.93245 1.49893 27.4806 2.95589 -3.41758 27.4914 3.05994 
1.51714 27.5199 1.94546 -2.53108 27.746 1.94393 -3.04565 27.2412 2.43362 
1.52953 27.5409 0.916183 -1.70283 27.6138 0.947488 -2.02796 27.1931 1.45328 
1.52839 27.398 0.0388028 -0.153014 28.0944 -0.0973488 -0.730416 27.8975 -0.0671959 
-1.38021 27.5363 0.269655 1.12728 27.9562 -1.02083 1.36393 27.342 -0.932233 
0.662446 27.7376 -0.962904 -0.179724 27.382 -0.58141 -1.0328 27.2136 -0.343673 
0.971722 27.2868 -1.34255 0.938171 26.3137 12.5941 1.45064 26.6076 12.0471 
-0.322547 27.0612 11.9896 0.111986 26.5287 12.3725 -1.31931 26.9289 11.9899 
-1.00937 26.3049 12.3363 -2.33399 26.9517 12.0185 -2.05861 26.3091 12.382 
-3.0905 26.9794 11.8699 -2.86477 26.475 12.2851 -3.396 26.4164 11.9115 
1.53959 26.4392 11.0475 -3.59739 26.4671 11.0264 1.4911 26.4415 9.98548 
-3.55206 26.4787 9.97696 1.48285 26.4654 8.96515 -3.50335 26.4674 8.96424 
1.49026 26.4701 7.96276 -3.49698 26.4655 7.96501 1.49303 26.4687 6.96296 
-3.49866 26.4656 6.96623 1.49227 26.4664 5.96485 -3.5036 26.4635 5.96322 
1.49044 26.4636 4.96692 -3.52758 26.4721 4.94074 1.48913 26.4605 3.96891 
-3.54258 26.5095 3.92697 1.49129 26.4645 2.97149 -3.41505 26.5005 3.05655 
1.50084 26.4918 1.96394 -2.51657 26.7382 1.96025 -3.03709 26.2511 2.43678 
1.52416 26.5334 0.938948 -1.68833 26.7111 0.804715 -2.01504 26.1767 1.45827 
1.53058 26.551 -0.117538 -1.42825 26.4883 0.0527386 1.40511 26.2567 -1.0241 
0.498051 26.7536 -1.15921 -0.160863 26.189 -0.765289 -0.914783 26.4282 -0.453826 
1.02895 26.5063 -1.39091 0.894613 25.7517 12.9607 0.967002 25.135 13.2227 
1.34195 25.6735 12.7758 0.446018 25.3185 13.081 1.5273 25.4734 12.0467 
0.252864 25.767 12.7229 -0.704481 25.615 12.6146 -1.77291 25.5682 12.6534 
-2.85838 25.6869 12.5594 -3.50058 25.3993 12.1053 1.48642 25.4132 11.0398 
-3.58981 25.4512 11.0386 1.46519 25.4301 10.0148 -3.53251 25.4409 10.0116 
1.47706 25.4534 8.99603 -3.51015 25.4495 8.995 1.48819 25.4623 7.98122 
-3.50608 25.4592 7.98144 1.49301 25.4674 6.97037 -3.50189 25.4643 6.97235 
1.49455 25.4686 5.96531 -3.50344 25.4639 5.96316 1.49376 25.4669 4.96436 
-3.52681 25.4734 4.93703 1.49165 25.4631 3.9672 -3.54176 25.5132 3.92433 
1.48965 25.4616 2.97129 -3.41078 25.5057 3.06104 1.49416 25.4764 1.96674 
-2.50549 25.7409 1.97212 -3.02795 25.2505 2.45068 1.51835 25.5264 0.930371 
-1.66112 25.7126 0.791127 -1.99359 25.1838 1.47479 1.53314 25.539 -0.129226 
-1.32269 25.5658 0.0768598 1.4072 25.2354 -1.01726 0.508986 25.7528 -1.15705 
-0.0122766 25.271 -0.76461 -0.697073 25.3767 -0.386218 1.04395 25.5017 -1.37931 
0.996112 24.371 13.4478 1.53167 24.5373 12.7765 -0.333448 25.0356 12.987 
0.0898486 24.5162 13.3814 -1.32607 24.9216 13.0003 -1.02308 24.3171 13.3494 
-2.35299 24.949 13.0464 -1.91537 24.4284 13.3474 -3.11712 24.9365 12.8976 
-2.75013 24.3785 13.2745 -3.37013 24.338 12.6956 1.50647 24.5871 11.8698 
-3.58663 24.5973 11.8717 1.46889 24.4069 11.0088 -3.55598 24.4304 11.0089 
1.45017 24.4132 10.0138 -3.53673 24.4142 10.011 1.45582 24.4391 9.02708 
-3.53558 24.4362 9.0249 1.47072 24.4401 8.01877 -3.52413 24.438 8.0181 
1.48235 24.4535 6.99797 -3.51146 24.45 6.99978 1.48962 24.4618 5.98148 
-3.50776 24.4554 5.97961 1.49309 24.4665 4.97098 -3.52736 24.4722 4.94631 
1.49346 24.4657 3.96773 -3.53659 24.5191 3.93534 1.49115 24.4622 2.96982 
-3.40237 24.4977 3.0642 1.49405 24.4709 1.96958 -2.50338 24.7439 1.98877 
-3.0377 24.2553 2.43891 1.51736 24.5188 0.939984 -1.50369 24.7239 0.800232 
-1.98739 24.2006 1.50601 1.53126 24.5358 -0.118301 -1.0933 24.8888 0.125656 
-0.683013 24.5388 -0.0977471 -1.00129 24.1492 0.407861 1.40338 24.2375 -1.01457 
0.514589 24.7465 -1.12421 -0.120452 24.3444 -0.573705 1.03943 24.4933 -1.37612 
1.82582 23.8287 13.9843 1.96357 23.2523 14.2824 2.32435 23.5585 13.7517 
1.11248 23.9007 13.8333 1.11424 23.3842 14.2637 0.418755 23.3481 14.0426 
1.87334 23.9712 13.3499 2.3955 23.1974 12.913 0.225893 23.7654 13.7045 
-0.749366 23.6175 13.6531 -1.98433 23.6988 13.5251 -2.91847 23.8745 13.1155 
-2.62842 23.1502 13.0141 1.97184 23.6605 12.5756 1.68143 23.6819 11.8221 
-3.1561 23.6293 12.5869 -3.38681 23.6911 11.83 1.5762 23.3742 10.712 
-3.41341 23.3818 10.7112 1.45313 23.5807 9.84523 -3.53189 23.5793 9.84197 
1.45696 23.4243 9.00943 -3.53148 23.4225 9.00791 1.45394 23.4184 8.01556 
-3.53645 23.4166 8.01564 1.45729 23.4404 7.02668 -3.53357 23.4372 7.02817 
1.47052 23.4412 6.01874 -3.52533 23.4362 6.01679 1.48149 23.4539 4.99922 
-3.53419 23.4652 4.97914 1.48753 23.4596 3.98511 -3.53324 23.5082 3.94882 
1.48907 23.4603 2.97895 -3.43034 23.381 2.93291 1.49413 23.4697 1.97495 
-2.58912 23.8063 1.96897 -3.11019 23.44 2.26523 1.51774 23.5194 0.94302 
-1.46471 23.6932 1.00257 -2.18248 23.1965 1.48195 1.53122 23.5386 -0.118118 
-0.495587 23.7047 -0.0308341 -0.94778 23.216 0.511147 1.40147 23.2422 -1.01809 
[...]
CELL_DATA 1628
SCALARS scalars float
LOOKUP_TABLE default
255 255 255 255 255 255 255 255 255 
255 255 255 255 255 255 255 255 255 
255 255 255 255 255 255 255 255 255 
255 255 255 255 255 255 255 255 255 
255 255 255 255 255 255 255 255 255 
255 255 255 255 255 255 255 255 255 
255 255 255 255 255 255 255 255 255 
255 255 255 255 255 255 255 255 255 
255 255 255 255 255 255 255 255 255 
255 255 255 255 255 255 255 255 255 
255 255 255 255 255 255 255 255 255 
255 255 255 255 255 255 255 255 255 
255 255 255 255 255 255 255 255 255 
255 255 255 255 255 255 255 255 255 
255 255 255 255 255 255 255 255 255 
255 255 255 255 255 255 255 255 255 
255 255 255 255 255 255 255 255 255 
255 255 255 255 255 255 255 255 255 
255 255 255 255 255 255 255 255 255 
255 255 255 255 255 255 255 255 255 
255 255 255 255 255 255 255 255 255 
255 255 255 255 255 255 255 255 255 
255 255 255 255 255 255 255 255 255 
255 255 255 255 255 255 255 255 255 
255 255 255 255 255 255 255 255 255 
255 255 255 255 255 255 255 255 255 
255 255 255 255 255 255 255 255 255 
255 255 255 255 255 255 255 255 255 
255 255 255 255 255 255 255 255 255 
255 255 255 255 255 255 255 255 255 
255 255 255 255 255 255 255 255 255 
255 255 255 255 255 255 255 255 255 
255 255 255 255 255 255 255 255 255 
255 255 255 255 255 255 255 255 255 
255 255 255 255 255 255 255 255 255 
255 255 255 255 255 255 255 255 255 
255 255 255 255 255 255 255 255 255 
255 255 255 255 255 255 255 255 255 
255 255 255 255 255 255 255 255 255 
255 255 255 255 255 255 255 255 255 
255 255 255 255 255 255 255 255 255 
255 255 255 255 255 255 255 255 255 
255 255 255 255 255 255 255 255 255 
255 255 255 255 255 255 255 255 255 
255 255 255 255 255 255 255 255 255 
255 255 255 255 255 255 255 255 255 
255 255 255 255 255 255 255 255 255 
255 255 255 255 255 255 255 255 255 
255 255 255 255 255 255 255 255 255 
255 255 255 255 255 255 255 255 255 
255 255 255 255 255 255 255 255 255 
255 255 255 255 255 255 255 255 255 
255 255 255 255 255 255 255 255 255 
255 255 255 255 255 255 255 255 255 
255 255 255 255 255 255 255 255 255 
255 255 255 255 255 255 255 255 255 
255 255 255 255 255 255 255 255 255 
255 255 255 255 255 255 255 255 255 
255 255 255 255 255 255 255 255 255 
255 255 255 255 255 255 255 255 255 
255 255 255 255 255 255 255 255 255 
255 255 255 255 255 255 255 255 255 
255 255 255 255 255 255 255 255 255 
255 255 255 255 255 255 255 255 255 
255 255 255 255 255 255 255 255 255 
255 255 255 255 255 255 255 255 255 
255 255 255 255 255 255 255 255 255 
255 255 255 255 255 255 255 255 255 
255 255 255 255 255 255 255 255 255 
255 255 255 255 255 255 255 255 255 
255 255 255 255 255 255 255 255 255 
255 255 255 255 255 255 255 255 255 
255 255 255 255 255 255 255 255 255 
255 255 255 255 255 255 255 255 255 
255 255 255 255 255 255 255 255 255 
255 255 255 255 255 255 255 255 255 
255 255 255 255 255 255 255 255 255 
255 255 255 255 255 255 255 255 255 
255 255 255 255 255 255 255 255 255 
255 255 255 255 255 255 255 255 255 
255 255 255 255 255 255 255 255 255 
255 255 255 255 255 255 255 255 255 
255 255 255 255 255 255 255 255 255 
255 255 255 255 255 255 255 255 255 
255 255 255 255 255 255 255 255 255 
255 255 255 255 255 255 255 255 255 
255 255 255 255 255 255 255 255 255 
255 255 255 255 255 255 255 255 255 
255 255 255 255 255 255 255 255 255 
255 255 255 255 255 255 255 255 255 
255 255 255 255 255 255 255 255 255 
255 255 255 255 255 255 255 255 255 
255 255 255 255 255 255 255 255 255 
255 255 255 255 255 255 255 255 255 
255 255 255 255 255 255 255 255 255 
255 255 255 255 255 255 255 255 255 
255 255 255 255 255 255 255 255 255 
255 255 255 255 255 255 255 255 255 
255 255 255 255 255 255 255 255 255 
255 255 255 255 255 255 255 255 255 
255 255 255 255 255 255 255 255 255 
255 255 255 255 255 255 255 255 255 
255 255 255 255 255 255 255 255 255 
255 255 255 255 255 255 255 255 255 
255 255 255 255 255 255 255 255 255 
255 255 255 255 255 255 255 255 255 
255 255 255 255 255 255 255 255 255 
255 255 255 255 255 255 255 255 255 
255 255 255 255 255 255 255 255 255 
255 255 255 255 255 255 255 255 255 
255 255 255 255 255 255 255 255 255 
255 255 255 255 255 255 255 255 255 
255 255 255 255 255 255 255 255 255 
255 255 255 255 255 255 255 255 255 
255 255 255 255 255 255 255 255 255 
255 255 255 255 255 255 255 255 255 
255 255 255 255 255 255 255 255 255 
255 255 255 255 255 255 255 255 255 
255 255 255 255 255 255 255 255 255 
255 255 255 255 255 255 255 255 255 
255 255 255 255 255 255 255 255 255 
255 255 255 255 255 255 255 255 255 
255 255 255 255 255 255 255 255 255 
255 255 255 255 255 255 255 255 255 
255 255 255 255 255 255 255 255 255 
255 255 255 255 255 255 255 255 255 
255 255 255 255 255 255 255 255 255 
255 255 255 255 255 255 255 255 255 
255 255 255 255 255 255 255 255 255 
255 255 255 255 255 255 255 255 255 
255 255 255 255 255 255 255 255 255 
255 255 255 255 255 255 255 255 255 
255 255 255 255 255 255 255 255 255 
255 255 255 255 255 255 255 255 255 
255 255 255 255 255 255 255 255 255 
255 255 255 255 255 255 255 255 255 
255 255 255 255 255 255 255 255 255 
255 255 255 255 255 255 255 255 255 
255 255 255 255 255 255 255 255 255 
255 255 255 255 255 255 255 255 255 
255 255 255 255 255 255 255 255 255 
255 255 255 255 255 255 255 255 255 
255 255 255 255 255 255 255 255 255 
255 255 255 255 255 255 255 255 255 
255 255 255 255 255 255 255 255 255 
255 255 255 255 255 255 255 255 255 
255 255 255 255 255 255 255 255 255 
255 255 255 255 255 255 255 255 255 
255 255 255 255 255 255 255 255 255 
255 255 255 255 255 255 255 255 255 
255 255 255 255 255 255 255 255 255 
255 255 255 255 255 255 255 255 255 
255 255 255 255 255 255 255 255 255 
255 255 255 255 255 255 255 255 255 
255 255 255 255 255 255 255 255 255 
255 255 255 255 255 255 255 255 255 
255 255 255 255 255 255 255 255 255 
255 255 255 255 255 255 255 255 255 
255 255 255 255 255 255 255 255 255 
255 255 255 255 255 255 255 255 255 
255 255 255 255 255 255 255 255 255 
255 255 255 255 255 255 255 255 255 
255 255 255 255 255 255 255 255 255 
255 255 255 255 255 255 255 255 255 
255 255 255 255 255 255 255 255 255 
255 255 255 255 255 255 255 255 255 
255 255 255 255 255 255 255 255 255 
255 255 255 255 255 255 255 255 255 
255 255 255 255 255 255 255 255 255 
255 255 255 255 255 255 255 255 255 
255 255 255 255 255 255 255 255 255 
255 255 255 255 255 255 255 255 255 
255 255 255 255 255 255 255 255 255 
255 255 255 255 255 255 255 255 255 
255 255 255 255 255 255 255 255 255 
255 255 255 255 255 255 255 255 255 
255 255 255 255 255 255 255 255 255 
255 255 255 255 255 255 255 255 255 
255 255 255 255 255 255 255 255 255 
255 255 255 255 255 255 255 255 255 
255 255 255 255 255 255 255 255 
