# vtk DataFile Version 4.0
vtk output
ASCII
DATASET POLYDATA
POINTS 572 float
1.77083 5.83509 20.8857 1.97322 5.29054 21.5271 2.41612 5.41657 20.9657 
0.800568 5.89834 20.8774 1.10415 5.39997 21.3807 -0.273428 5.8993 20.9013 
0.0576696 5.36643 21.3854 -1.32658 5.93293 20.8684 -1.01577 5.40297 21.4064 
-2.08979 5.82677 20.7528 -1.83738 5.55065 21.2707 -2.34473 5.3164 21.0117 
1.9845 5.9196 20.011 2.48431 5.39993 20.0116 1.09956 6.05294 20.0179 
0.0494905 6.05868 20.0239 -1.02093 6.0761 19.9924 -1.94187 5.94954 19.9686 
-2.46977 5.41478 20.2367 1.964 5.9079 18.9828 2.44791 5.40301 18.9725 
1.09369 6.03605 18.9945 0.0451507 6.03563 18.9924 -1.01229 6.05127 18.9474 
-1.91048 5.93533 18.9217 -2.44368 5.4346 19.1827 1.94117 5.90401 17.9676 
2.43895 5.40755 17.9667 1.05427 6.02139 17.9728 -0.00634019 6.01215 17.9664 
-1.06408 6.02239 17.9178 -1.9453 5.90592 17.8886 -2.44275 5.41144 18.1451 
1.92646 5.90603 16.9633 2.43732 5.40819 16.9675 1.02269 6.02778 16.9629 
-0.0468802 6.02263 16.9547 -1.10176 6.03128 16.9057 -1.97468 5.9065 16.8774 
-2.45879 5.40349 17.1399 1.90371 5.92447 15.9421 2.43743 5.42674 15.9466 
0.996511 6.04984 15.9542 -0.0503276 6.03958 15.9422 -1.0945 6.04591 15.8944 
-1.98522 5.92615 15.8756 -2.48873 5.41495 16.1257 1.90928 5.95705 14.9194 
2.44413 5.42364 14.9237 1.00396 6.08113 14.931 0.121465 6.05152 15.0803 
-0.808812 5.93869 14.8506 -1.80648 5.85081 14.994 -2.42881 5.43191 15.1885 
1.90713 5.87971 13.9664 2.36859 5.2401 14.0728 1.17039 6.08891 14.0557 
0.156761 5.90534 13.9636 -0.583858 5.54737 14.069 -1.3092 5.32058 14.3805 
-2.1041 5.31034 14.6139 1.88654 5.6012 13.3631 1.52212 5.44071 12.6954 
1.06181 5.87741 12.9956 0.386901 5.53578 12.9352 -0.0612545 5.19635 13.4671 
1.08799 5.72929 12.0479 1.22687 5.25273 12.0676 0.754239 5.51924 12.1412 
0.991358 5.54897 11.7127 1.93703 4.78225 21.9607 1.98698 4.15802 22.2374 
2.40098 4.73076 21.7675 1.46187 4.34512 22.089 2.60875 4.5512 21.0301 
1.27954 4.79198 21.731 0.318799 4.65431 21.6401 -0.746387 4.6222 21.6737 
-1.84248 4.7404 21.5434 -2.50121 4.44426 21.0673 2.58599 4.49969 19.9975 
-2.60545 4.53163 19.9444 2.55297 4.51952 18.9651 -2.56931 4.53238 18.8878 
2.55148 4.52475 17.9681 -2.56189 4.52118 17.8863 2.55775 4.52874 16.9687 
-2.58941 4.51981 16.8795 2.57994 4.55335 15.9455 -2.60563 4.55261 15.8589 
2.5727 4.51564 14.9603 -2.4024 4.62131 15.0049 2.36837 4.3399 14.2288 
-0.566664 4.7586 13.9333 -1.02201 4.35802 14.2728 -1.73149 4.45992 14.5632 
2.05034 4.89816 13.4739 1.54299 4.33318 12.925 0.474903 4.79365 12.6682 
-0.0272551 4.18851 13.4146 0.98729 4.43309 12.4005 0.907995 5.14096 11.9636 
1.95214 3.20321 22.3932 2.4397 3.76074 21.8943 0.677579 4.07296 21.9876 
1.10904 3.52246 22.3704 -0.322883 3.9345 21.9961 -0.0196788 3.3106 22.3395 
-1.35051 3.94731 22.0323 -1.07284 3.27459 22.3702 -2.11229 3.95873 21.8748 
-1.86352 3.41705 22.2802 -2.40005 3.3745 21.8744 2.56766 3.48387 21.0255 
-2.60261 3.45855 20.9707 2.53124 3.46487 19.9753 -2.56493 3.49368 19.925 
2.51082 3.48744 18.9621 -2.52332 3.49061 18.9137 2.51284 3.48871 17.9689 
-2.52984 3.48304 17.9187 2.52703 3.50068 16.9661 -2.56678 3.49735 16.894 
2.55547 3.52556 15.9461 -2.46124 3.56788 15.8327 2.44155 3.40013 14.9683 
-2.1095 3.947 15.0445 -1.58439 3.65215 14.8817 -1.88766 3.14573 15.3822 
2.13775 3.58864 14.3067 2.00286 4.11817 13.7887 1.76593 3.41662 13.7828 
-0.502818 3.54889 14.0822 -1.05988 3.56831 14.5885 1.43257 3.1412 13.0455 
0.495398 3.69667 12.8525 0.00778304 3.10778 13.4305 1.04377 3.43263 12.639 
2.07295 2.39295 22.6194 2.44803 2.56486 22.0324 1.34211 2.62984 22.6631 
0.311 2.64233 22.6362 -0.906243 2.46243 22.627 -1.90847 2.71185 22.3916 
-2.44835 2.45458 21.8876 2.53311 2.42358 21.006 -2.56425 2.43954 20.9862 
2.49238 2.44776 19.9648 -2.51427 2.46677 19.9627 2.48226 2.46417 18.9627 
-2.49172 2.46235 18.9642 2.48701 2.46396 17.969 -2.51636 2.45762 17.9622 
2.50956 2.48774 16.9609 -2.55519 2.4871 16.9358 2.53822 2.5054 15.9465 
-2.41982 2.50308 16.0642 2.40531 2.25255 15.0796 -1.18783 3.05391 15.0304 
-0.715248 2.67914 14.7389 -1.24538 2.28598 15.2918 -2.01213 2.32805 15.6234 
1.94167 2.62636 14.4408 1.46818 2.50419 13.7779 -0.28932 2.45841 14.1042 
1.26615 2.40803 13.1445 0.575031 2.74413 12.8794 0.163178 2.35605 13.4262 
1.09622 2.65131 12.721 1.74794 1.92604 23.0249 1.95865 1.16433 23.3331 
2.37867 1.66934 22.7751 0.779506 2.02792 23.0167 1.05744 1.37024 23.3911 
-0.274987 1.97287 23.001 -0.000847066 1.35893 23.3779 -1.13858 1.78146 22.9569 
-0.975763 1.3034 23.3225 -1.64967 1.28399 23.1049 2.56548 1.45364 22.0256 
-1.91374 1.7844 22.5995 -2.47426 1.37004 22.0792 2.52463 1.41204 20.9956 
-2.54306 1.44854 20.9971 2.48491 1.45287 19.9631 -2.49786 1.46756 19.9698 
2.48111 1.46356 18.9641 -2.49245 1.45875 18.9717 2.48754 1.46568 17.968 
-2.53418 1.4569 17.9588 2.51615 1.50234 16.9511 -2.55833 1.50215 16.9343 
2.5488 1.5206 15.9274 -2.34574 1.5972 16.0885 2.40484 1.25403 15.0391 
-0.513495 1.70545 14.8007 -1.01804 1.28057 15.2986 -1.69932 1.41364 15.6198 
1.8726 1.50502 14.5491 1.05844 1.49949 14.3064 0.86549 1.89059 13.7919 
0.131068 1.26358 14.4533 0.140322 1.87485 13.9603 0.743734 2.16873 13.1588 
1.9639 0.226956 23.4268 2.4638 0.731573 22.9082 1.08547 0.501872 23.5431 
0.0214382 0.493881 23.544 -1.02511 0.465088 23.541 -2.16592 1.00725 22.895 
-1.8116 0.625611 23.3458 -2.39758 0.347099 22.902 2.56643 0.44259 22.0377 
-2.57707 0.411047 22.0236 2.51694 0.417904 20.9914 -2.53572 0.466325 20.9866 
2.48729 0.45805 19.9634 -2.49427 0.468717 19.9675 2.48487 0.465991 18.9652 
-2.50539 0.457788 18.9675 2.49149 0.470631 17.967 -2.54955 0.464796 17.9439 
2.5217 0.514264 16.9427 -2.45359 0.529869 16.8752 2.5494 0.531926 15.9078 
-2.12064 0.913059 16.0743 -1.70303 0.533193 15.8503 -2.06871 0.146303 16.3675 
2.40948 0.269224 15.022 -0.533476 0.670996 14.9592 -1.13422 0.340158 15.4393 
1.90222 0.515261 14.514 1.03186 0.469158 14.398 0.130686 0.42217 14.5685 
1.93401 -0.783596 23.4134 2.45024 -0.26486 22.9246 1.04442 -0.505676 23.5337 
-0.0224895 -0.518994 23.5271 -1.08855 -0.55623 23.543 -1.95461 -0.304686 23.4152 
-2.47309 -0.582761 22.8905 2.55679 -0.558732 22.0306 -2.57629 -0.56009 22.0008 
2.51732 -0.579151 20.9899 -2.52311 -0.528727 20.9765 2.48997 -0.540409 19.9643 
-2.49683 -0.534267 19.965 2.48657 -0.533528 18.9661 -2.52708 -0.543835 18.967 
2.49298 -0.528331 17.9673 -2.5448 -0.518693 17.9591 2.52148 -0.485538 16.9441 
-2.34668 -0.466624 17.0781 2.54073 -0.476278 15.92 -1.54345 -0.325156 16.0412 
-2.03029 -0.437611 16.5622 2.39947 -0.727116 15.0282 -0.524976 -0.341918 15.0659 
-1.02654 -0.460473 15.5381 2.04693 -0.302984 14.548 1.31192 -0.535842 14.4872 
0.322008 -0.420249 14.6241 1.89989 -1.79806 23.3925 2.43457 -1.2713 22.913 
1.00207 -1.53465 23.4951 -0.0475591 -1.54203 23.469 -1.08764 -1.59155 23.4865 
-1.97636 -1.33085 23.3827 -2.4545 -1.57386 22.8813 2.55276 -1.55936 22.0281 
-2.55723 -1.53923 21.995 2.51825 -1.57824 20.9911 -2.51262 -1.52526 20.9647 
2.49105 -1.53975 19.9652 -2.50465 -1.53696 19.9622 2.4872 -1.53334 18.9665 
-2.53907 -1.52972 18.9597 2.49366 -1.52835 17.9687 -2.43141 -1.46378 17.9122 
2.51855 -1.48889 16.9536 -1.9188 -1.01203 16.8524 -1.53163 -1.52719 16.8088 
-2.04517 -1.82335 17.4015 2.52893 -1.48521 15.9259 -1.02248 -1.04242 15.9478 
-0.503606 -1.52384 15.8086 -1.0171 -1.83323 16.4079 2.40411 -1.7351 14.8477 
0.687483 -1.11639 14.9232 1.40811 -1.5711 14.7478 0.899648 -1.88318 15.2864 
0.130588 -1.63253 15.4779 -0.151214 -1.02882 15.2063 1.94231 -1.29682 14.4554 
1.9218 -2.81285 23.3905 2.4129 -2.2803 22.9058 1.0412 -2.53855 23.496 
-0.0163083 -2.52519 23.4577 -0.910512 -2.43687 23.4582 -1.85018 -2.52692 23.4992 
-2.47546 -2.60712 23.0857 2.54405 -2.56454 22.0269 -2.54625 -2.52193 21.9994 
2.51659 -2.57882 20.9913 -2.50322 -2.52889 20.962 2.49065 -2.53849 19.9654 
-2.51216 -2.53486 19.9564 2.48694 -2.53183 18.9661 -2.53625 -2.50558 18.954 
2.49277 -2.52719 17.9695 -2.4169 -2.51074 18.0902 2.5108 -2.49396 16.96 
-1.53801 -2.23837 16.9876 -2.04524 -2.73428 17.4708 2.52273 -2.48887 15.9436 
-0.47931 -2.24029 15.9865 -1.01481 -2.7546 16.4873 2.51908 -2.61685 15.0949 
1.40977 -2.37503 15.0253 0.914381 -2.8096 15.4222 0.18534 -2.51112 15.6448 
2.04428 -2.0031 13.8555 2.40263 -2.42131 14.0092 1.67496 -2.41365 14.2645 
2.08205 -2.22005 13.1063 2.3327 -2.71427 12.8122 1.70959 -2.7089 13.0996 
1.93433 -2.57141 12.4518 -2.16463 -3.1627 23.87 -1.83354 -3.8276 24.282 
-1.65393 -3.4187 23.9378 -2.39617 -3.61736 23.9364 2.07083 -3.72096 23.37 
2.41029 -3.29219 22.8937 1.35288 -3.58748 23.6266 0.276417 -3.38641 23.6156 
-0.879149 -3.32413 23.653 -2.57531 -3.52983 23.0582 2.53837 -3.57348 22.019 
-2.53741 -3.53074 22.0053 2.5147 -3.57795 20.9881 -2.49827 -3.53873 20.9682 
2.48853 -3.53555 19.9638 -2.51487 -3.52823 19.945 2.48486 -3.52821 18.9636 
-2.5325 -3.48882 18.9411 2.48865 -3.52563 17.9665 -2.41055 -3.49215 18.0705 
2.49786 -3.50591 16.9586 -1.52893 -3.21329 16.9666 -2.04614 -3.73415 17.4312 
2.51192 -3.49252 15.9565 -0.496073 -3.38869 15.8877 -1.01339 -3.79512 16.4474 
2.51673 -3.44783 14.9472 1.33881 -3.19289 14.9227 0.773594 -3.5359 15.2813 
0.157218 -3.46791 15.4659 2.51714 -3.41565 13.9183 1.41747 -3.52823 13.8901 
2.5265 -3.57381 13.037 1.50649 -3.5343 12.9374 2.05222 -2.97831 11.9638 
2.36974 -3.64047 11.8624 1.64428 -3.53251 12.0646 1.93941 -3.60118 11.3719 
0.723243 -4.09568 23.9926 0.91246 -4.8581 24.3193 1.42079 -4.4035 23.945 
-0.29008 -4.04548 24.0109 0.00935951 -4.71137 24.4096 -1.14862 -3.91731 24.0986 
-1.1486 -4.56422 24.446 -2.06536 -4.39777 24.4169 -2.45854 -4.53399 23.9383 
1.97277 -4.62833 23.5293 2.42034 -4.29364 22.8868 -2.57463 -4.54586 23.0294 
2.54416 -4.57505 22.0059 -2.53258 -4.54277 22.0104 2.51748 -4.57638 20.9831 
-2.50448 -4.54955 20.9829 2.49058 -4.5364 19.9599 -2.51987 -4.52653 19.9475 
2.48721 -4.52881 18.9587 -2.537 -4.48456 18.9349 2.48865 -4.52987 17.961 
-2.42144 -4.49411 18.0611 2.49118 -4.52504 16.9571 -1.51348 -4.23166 16.9298 
-2.02727 -4.74083 17.425 2.49977 -4.51335 15.9491 -0.670806 -4.40594 15.9589 
[...]
CELL_DATA 1140
SCALARS scalars float
LOOKUP_TABLE default
253 253 253 253 253 253 253 253 253 
253 253 253 253 253 253 253 253 253 
253 253 253 253 253 253 253 253 253 
253 253 253 253 253 253 253 253 253 
253 253 253 253 253 253 253 253 253 
253 253 253 253 253 253 253 253 253 
253 253 253 253 253 253 253 253 253 
253 253 253 253 253 253 253 253 253 
253 253 253 253 253 253 253 253 253 
253 253 253 253 253 253 253 253 253 
253 253 253 253 253 253 253 253 253 
253 253 253 253 253 253 253 253 253 
253 253 253 253 253 253 253 253 253 
253 253 253 253 253 253 253 253 253 
253 253 253 253 253 253 253 253 253 
253 253 253 253 253 253 253 253 253 
253 253 253 253 253 253 253 253 253 
253 253 253 253 253 253 253 253 253 
253 253 253 253 253 253 253 253 253 
253 253 253 253 253 253 253 253 253 
253 253 253 253 253 253 253 253 253 
253 253 253 253 253 253 253 253 253 
253 253 253 253 253 253 253 253 253 
253 253 253 253 253 253 253 253 253 
253 253 253 253 253 253 253 253 253 
253 253 253 253 253 253 253 253 253 
253 253 253 253 253 253 253 253 253 
253 253 253 253 253 253 253 253 253 
253 253 253 253 253 253 253 253 253 
253 253 253 253 253 253 253 253 253 
253 253 253 253 253 253 253 253 253 
253 253 253 253 253 253 253 253 253 
253 253 253 253 253 253 253 253 253 
253 253 253 253 253 253 253 253 253 
253 253 253 253 253 253 253 253 253 
253 253 253 253 253 253 253 253 253 
253 253 253 253 253 253 253 253 253 
253 253 253 253 253 253 253 253 253 
253 253 253 253 253 253 253 253 253 
253 253 253 253 253 253 253 253 253 
253 253 253 253 253 253 253 253 253 
253 253 253 253 253 253 253 253 253 
253 253 253 253 253 253 253 253 253 
253 253 253 253 253 253 253 253 253 
253 253 253 253 253 253 253 253 253 
253 253 253 253 253 253 253 253 253 
253 253 253 253 253 253 253 253 253 
253 253 253 253 253 253 253 253 253 
253 253 253 253 253 253 253 253 253 
253 253 253 253 253 253 253 253 253 
253 253 253 253 253 253 253 253 253 
253 253 253 253 253 253 253 253 253 
253 253 253 253 253 253 253 253 253 
253 253 253 253 253 253 253 253 253 
253 253 253 253 253 253 253 253 253 
253 253 253 253 253 253 253 253 253 
253 253 253 253 253 253 253 253 253 
253 253 253 253 253 253 253 253 253 
253 253 253 253 253 253 253 253 253 
253 253 253 253 253 253 253 253 253 
253 253 253 253 253 253 253 253 253 
253 253 253 253 253 253 253 253 253 
253 253 253 253 253 253 253 253 253 
253 253 253 253 253 253 253 253 253 
253 253 253 253 253 253 253 253 253 
253 253 253 253 253 253 253 253 253 
253 253 253 253 253 253 253 253 253 
253 253 253 253 253 253 253 253 253 
253 253 253 253 253 253 253 253 253 
253 253 253 253 253 253 253 253 253 
253 253 253 253 253 253 253 253 253 
253 253 253 253 253 253 253 253 253 
253 253 253 253 253 253 253 253 253 
253 253 253 253 253 253 253 253 253 
253 253 253 253 253 253 253 253 253 
253 253 253 253 253 253 253 253 253 
253 253 253 253 253 253 253 253 253 
253 253 253 253 253 253 253 253 253 
253 253 253 253 253 253 253 253 253 
253 253 253 253 253 253 253 253 253 
253 253 253 253 253 253 253 253 253 
253 253 253 253 253 253 253 253 253 
253 253 253 253 253 253 253 253 253 
253 253 253 253 253 253 253 253 253 
253 253 253 253 253 253 253 253 253 
253 253 253 253 253 253 253 253 253 
253 253 253 253 253 253 253 253 253 
253 253 253 253 253 253 253 253 253 
253 253 253 253 253 253 253 253 253 
253 253 253 253 253 253 253 253 253 
253 253 253 253 253 253 253 253 253 
253 253 253 253 253 253 253 253 253 
253 253 253 253 253 253 253 253 253 
253 253 253 253 253 253 253 253 253 
253 253 253 253 253 253 253 253 253 
253 253 253 253 253 253 253 253 253 
253 253 253 253 253 253 253 253 253 
253 253 253 253 253 253 253 253 253 
253 253 253 253 253 253 253 253 253 
253 253 253 253 253 253 253 253 253 
253 253 253 253 253 253 253 253 253 
253 253 253 253 253 253 253 253 253 
253 253 253 253 253 253 253 253 253 
253 253 253 253 253 253 253 253 253 
253 253 253 253 253 253 253 253 253 
253 253 253 253 253 253 253 253 253 
253 253 253 253 253 253 253 253 253 
253 253 253 253 253 253 253 253 253 
253 253 253 253 253 253 253 253 253 
253 253 253 253 253 253 253 253 253 
253 253 253 253 253 253 253 253 253 
253 253 253 253 253 253 253 253 253 
253 253 253 253 253 253 253 253 253 
253 253 253 253 253 253 253 253 253 
253 253 253 253 253 253 253 253 253 
253 253 253 253 253 253 253 253 253 
253 253 253 253 253 253 253 253 253 
253 253 253 253 253 253 253 253 253 
253 253 253 253 253 253 253 253 253 
253 253 253 253 253 253 253 253 253 
253 253 253 253 253 253 253 253 253 
253 253 253 253 253 253 253 253 253 
253 253 253 253 253 253 253 253 253 
253 253 253 253 253 253 253 253 253 
253 253 253 253 253 253 253 253 253 
253 253 253 253 253 253 253 253 253 
253 253 253 253 253 253 
