# vtk DataFile Version 4.0
vtk output
ASCII
DATASET POLYDATA
POINTS 488 float
1.81718 -8.13989 22.9436 1.98528 -8.80488 23.3921 2.4067 -8.4586 22.8417 
0.849767 -8.07078 22.9332 1.11425 -8.60899 23.4733 -0.233565 -8.08269 22.9275 
0.0516243 -8.63184 23.4684 -1.30032 -8.06434 22.8879 -1.02181 -8.6109 23.4598 
-2.07723 -8.18643 22.7931 -1.8292 -8.46404 23.3204 -2.3565 -8.71446 23.0599 
2.00805 -8.08347 22.0553 2.50903 -8.59802 22.043 1.11722 -7.94493 22.0428 
0.0640269 -7.93454 22.0234 -1.00848 -7.91886 21.9853 -1.93496 -8.05374 21.9817 
-2.47773 -8.61532 22.2877 1.9735 -8.12273 21.0161 2.47833 -8.64223 21.0065 
1.08885 -7.97197 21.0032 0.0364053 -7.96339 20.9856 -1.01626 -7.9462 20.9356 
-1.90906 -8.06424 20.9182 -2.45118 -8.58511 21.2243 1.92959 -8.10954 19.9686 
2.44205 -8.6236 19.9733 1.02793 -7.97542 19.9617 -0.0392483 -7.97502 19.9494 
-1.09191 -7.96343 19.8998 -1.96097 -8.08522 19.8708 -2.45029 -8.59348 20.1486 
1.90915 -8.06704 18.9338 2.43191 -8.56401 18.9325 1.00917 -7.94676 18.946 
-0.033614 -7.96436 18.9327 -1.079 -7.95888 18.8878 -1.97357 -8.07163 18.8676 
-2.47362 -8.5801 19.1137 1.94186 -8.03003 17.9061 2.46272 -8.53523 17.9047 
1.01298 -7.91709 17.9174 0.135176 -7.94758 18.0812 -0.773942 -8.07611 17.8551 
-1.75526 -8.15263 18.0041 -2.3963 -8.56622 18.1833 2.07281 -8.15581 17.1478 
2.37875 -8.77443 17.0488 1.13292 -8.03056 16.9126 0.00300073 -8.06363 17.0445 
-0.616902 -8.45135 17.0225 -1.2817 -8.68519 17.4111 -2.06891 -8.67976 17.629 
1.7163 -8.56741 16.6334 0.920822 -8.43048 16.3432 0.471303 -8.56279 15.786 
0.154852 -8.17938 15.9793 -0.386525 -8.59576 16.2345 -0.0270233 -8.17267 14.8882 
0.330204 -8.53943 14.8886 -0.383431 -8.59807 15.1686 0.0411987 -8.19567 14.0658 
0.280764 -8.73802 13.9579 -0.318931 -8.5498 14.1563 -0.0807035 -8.6524 13.6175 
1.81859 -9.71423 23.376 2.45907 -9.3201 22.8318 1.04505 -9.51486 23.5824 
0.0115472 -9.52007 23.5978 -1.0549 -9.52621 23.6005 -1.94502 -9.24054 23.459 
-2.49735 -9.52808 22.911 2.62484 -9.32537 21.8839 -2.62309 -9.52182 21.9807 
2.5981 -9.5181 21.0097 -2.59573 -9.49255 20.9341 2.56908 -9.5162 19.9776 
-2.5822 -9.48916 19.8848 2.5644 -9.44237 18.933 -2.58693 -9.45917 18.85 
2.58349 -9.4241 17.892 -2.43942 -9.4395 17.9999 2.44005 -9.74068 17.0375 
-0.735167 -9.14793 16.8197 -1.27704 -9.67144 17.2569 -1.92427 -9.48398 17.5442 
1.90534 -9.48843 16.5813 1.13456 -9.19802 16.3315 0.631011 -9.46979 15.8403 
-0.633672 -9.47874 15.8335 0.486728 -9.47499 14.9231 -0.54382 -9.29778 14.7164 
0.38467 -9.74375 13.9958 -0.386032 -9.45682 13.9567 0.0197527 -9.47779 13.5681 
2.16252 -10.1215 22.9184 1.633 -10.3948 23.119 0.963482 -10.3655 23.3347 
-0.00593082 -10.4006 23.396 -1.0612 -10.4355 23.4202 -1.97528 -10.2343 23.346 
-2.43271 -10.6407 22.6714 1.9047 -10.8866 22.6092 2.48872 -10.2455 22.0943 
-2.5933 -10.4024 21.8073 2.56965 -10.5505 21.0251 -2.56431 -10.5399 20.9605 
2.54372 -10.5629 19.9958 -2.561 -10.5269 19.9071 2.54205 -10.4773 18.9423 
-2.56057 -10.4901 18.8716 2.56653 -10.4476 17.8979 -2.39196 -10.471 18.0398 
2.41795 -10.7614 17.0436 -0.980712 -9.95118 16.6626 -1.40624 -10.4212 16.9907 
-1.89619 -10.6045 17.4609 1.89502 -10.5292 16.5868 1.15646 -10.2567 16.3556 
0.640677 -10.5416 15.8633 -0.946855 -10.2111 15.9093 -1.32003 -10.7632 16.181 
0.502303 -10.5699 14.9562 -0.710316 -10.1929 14.9414 -1.10585 -10.7123 15.393 
0.31535 -10.7363 14.1399 -0.30963 -10.4973 14.0002 0.128419 -10.2971 13.6535 
1.12983 -10.8582 22.9475 0.271081 -11.0195 22.9818 -0.786941 -11.0977 23.0022 
-1.75952 -11.0514 23.0203 1.90308 -11.8206 22.392 2.42817 -11.3231 21.9133 
0.921117 -11.5526 22.6234 -0.283031 -11.706 22.6319 -1.33406 -11.7414 22.65 
-2.08058 -11.543 22.6082 -2.44999 -11.4839 22.0149 2.55251 -11.5888 21.0175 
-2.54359 -11.5896 21.0187 2.5275 -11.5966 20.0023 -2.54849 -11.5469 19.9586 
2.52772 -11.5138 18.9519 -2.54424 -11.5056 18.9215 2.55365 -11.4648 17.9022 
-2.38729 -11.5095 18.0765 2.41081 -11.7625 17.044 -1.63051 -11.2423 16.8635 
-2.00889 -11.7734 17.4624 1.87924 -11.5373 16.5867 1.13064 -11.298 16.3578 
0.639724 -11.5882 15.8572 -1.49636 -11.673 16.1467 0.366232 -11.6709 14.9804 
-0.832439 -11.0415 14.6792 -1.3487 -11.6232 15.1438 -0.169251 -11.3117 14.2969 
0.0329893 -10.8419 13.8548 -0.8684 -11.743 14.3458 1.85904 -12.5307 22.2818 
2.39638 -12.3799 21.8102 1.00067 -12.5601 22.3918 -0.0139211 -12.5622 22.5047 
-1.05299 -12.5907 22.5157 -1.93688 -12.3345 22.4007 -2.41706 -12.6021 21.915 
2.5513 -12.4342 20.8874 -2.55825 -12.6022 21.0444 2.53572 -12.5901 20.0261 
-2.55245 -12.5449 19.9887 2.53904 -12.5354 18.9642 -2.53547 -12.4948 18.9479 
2.55609 -12.4751 17.9076 -2.37531 -12.5276 18.0889 2.41354 -12.7594 17.0424 
-1.64168 -12.2581 16.8375 -1.99618 -12.7991 17.47 1.88764 -12.5228 16.579 
1.1434 -12.2888 16.3452 0.630418 -12.6139 15.8841 -1.50015 -12.5362 15.9828 
0.288901 -12.7413 15.2639 -1.52436 -12.6879 15.1146 -0.190347 -12.1638 14.4519 
-0.861787 -12.2403 13.9156 -0.555218 -12.8425 14.0316 -1.3529 -12.4711 14.2096 
-1.07902 -12.7432 13.653 2.08893 -13.0218 21.8972 1.40246 -13.0724 22.0337 
0.633697 -13.3309 22.0621 -0.117018 -13.5927 22.3125 -1.04654 -13.5942 22.5197 
-1.91115 -13.3365 22.4106 -2.44229 -13.6227 21.9244 1.83639 -13.7707 21.5393 
2.44724 -13.2866 21.1045 0.858322 -13.7736 21.7133 -2.5694 -13.5975 21.0374 
2.54752 -13.5802 20.0213 -2.55686 -13.5338 19.9956 2.55473 -13.5411 18.9643 
-2.52756 -13.501 18.9536 2.56355 -13.4904 17.9155 -2.38835 -13.636 17.9694 
2.41763 -13.7605 17.0418 -1.69145 -13.2009 16.8325 -2.06382 -13.6109 17.3136 
1.89841 -13.5063 16.5688 1.15076 -13.2772 16.3341 0.494739 -13.6988 15.913 
-1.65931 -13.4037 15.9366 0.0962636 -13.4512 15.342 -0.0594621 -12.9152 14.785 
-0.267981 -13.6058 14.8036 -1.66406 -13.3924 14.902 -0.689879 -13.7343 14.1452 
-1.3525 -13.4703 14.0121 -0.934627 -13.2963 13.6672 0.156838 -13.9408 21.9068 
-0.445622 -14.4056 22.0419 -1.11665 -14.4728 22.3243 -1.93152 -14.3039 22.3557 
-2.4084 -14.6858 21.7361 1.80181 -14.7239 21.3144 2.39202 -14.4005 20.8108 
0.993921 -14.5523 21.495 -0.0711485 -14.6722 21.6668 -2.56875 -14.431 20.8843 
2.55493 -14.4123 19.862 -2.55981 -14.5424 20.0186 2.56634 -14.5316 18.9897 
-2.5388 -14.5314 18.9679 2.57653 -14.5124 17.9292 -2.51436 -14.6653 18.1166 
2.42134 -14.7734 17.0508 -2.00589 -13.9513 16.6472 -2.3899 -14.4619 17.2462 
1.90333 -14.4954 16.5615 1.14504 -14.2838 16.3328 0.480147 -14.8384 16.0168 
-2.03051 -14.0359 15.6646 -2.39039 -14.6392 16.2139 0.0144161 -14.286 15.5037 
-0.498395 -14.6175 14.8503 -1.83763 -14.0892 14.7381 -2.37008 -14.7384 15.0884 
-1.19045 -14.2815 14.3156 -1.01316 -13.7847 13.86 -1.89102 -14.7306 14.3862 
-0.967009 -14.9537 21.9544 -1.75199 -15.0748 22.0507 2.15799 -15.1513 20.9098 
1.65126 -15.3789 21.1208 1.00028 -15.3511 21.2939 -0.0620001 -15.6021 21.3692 
-1.19384 -15.6153 21.6406 -2.08634 -15.563 21.6607 -2.47003 -15.4982 21.0418 
1.8794 -15.8844 20.6121 2.45754 -15.3028 20.097 -2.56119 -15.577 20.0074 
2.57648 -15.5329 18.9906 -2.55119 -15.5381 18.969 2.59265 -15.5269 17.9344 
-2.52569 -15.5186 17.9538 2.42036 -15.7995 17.0751 -2.52256 -15.4917 16.9458 
1.89623 -15.5009 16.5704 1.14132 -15.2872 16.3323 0.46944 -15.8392 16.0098 
-2.55168 -15.4994 15.9239 -0.014501 -15.2962 15.5287 -0.48323 -15.7459 14.9656 
-2.57716 -15.6306 15.0493 -1.17239 -15.2179 14.3803 -1.86936 -15.2293 13.9349 
-1.58411 -15.8176 13.8445 -2.37852 -15.4419 14.2077 -2.08944 -15.7266 13.652 
1.14259 -15.8443 20.9585 0.351386 -16.0825 20.9931 -0.431069 -16.4076 21.0565 
-1.11412 -16.4388 21.2867 -1.9518 -16.2946 21.3387 -2.39044 -16.6699 20.6994 
1.82229 -16.5588 20.2709 2.38587 -16.3894 19.8073 0.877425 -16.5752 20.4973 
-0.229679 -16.8232 20.6968 -2.55999 -16.4309 19.8431 2.59074 -16.3651 18.8283 
-2.54635 -16.5502 18.9827 2.59806 -16.5222 17.9659 -2.5273 -16.5327 17.9403 
2.41893 -16.8005 17.0619 -2.52295 -16.4988 16.9117 1.87856 -16.4941 16.5674 
1.12176 -16.2822 16.3289 0.48044 -16.8287 15.9871 -2.55611 -16.502 15.8913 
-0.00842244 -16.2975 15.5174 -0.481528 -16.7726 14.9677 -2.55697 -16.4933 14.8583 
-1.10772 -16.4008 14.3941 -1.66341 -16.5939 13.9228 -2.35089 -16.4144 13.9724 
-1.95818 -16.2943 13.6436 -0.967478 -16.9264 20.9369 -1.72622 -17.0419 21.0044 
2.08196 -17.0267 19.8517 1.37219 -17.0765 19.9962 0.592914 -17.3128 20.021 
-0.159761 -17.5913 20.2875 -1.18078 -17.6041 20.633 -2.05874 -17.5418 20.6323 
-2.45441 -17.486 20.0261 1.8282 -17.7561 19.5016 2.47212 -17.2287 19.0586 
0.822718 -17.7617 19.658 -2.54359 -17.5805 19.0137 2.59699 -17.51 17.9668 
-2.51703 -17.5388 17.976 2.45954 -17.7944 16.8703 -2.50403 -17.5217 16.9486 
1.92086 -17.3655 16.4112 1.15032 -17.2069 16.2441 0.656254 -17.6639 15.908 
-2.53558 -17.5319 15.9037 0.0884247 -17.4422 15.4974 -0.525595 -17.7924 14.9666 
-2.42197 -17.4795 14.8049 -1.14742 -17.4936 14.5619 -1.8516 -17.4534 14.3834 
-2.09043 -16.9329 13.9905 0.14057 -17.9114 19.8493 -0.358154 -18.4441 19.9969 
-1.05683 -18.6917 20.3736 -1.93736 -18.3232 20.4213 -2.41916 -18.5779 19.913 
1.91261 -18.786 19.346 2.44531 -18.2355 18.8754 0.993027 -18.5465 19.4598 
0.119772 -18.5672 19.6347 -2.54926 -18.5828 19.0257 2.60255 -18.4977 17.9666 
-2.51853 -18.5393 18.0008 2.58907 -18.6688 17.0983 -2.51085 -18.5358 16.9737 
2.05006 -18.013 16.0784 2.37879 -18.6602 16.1278 1.34437 -17.9695 15.9525 
-2.53632 -18.5406 15.9441 1.6777 -18.6532 15.6435 0.697326 -18.4888 15.5849 
-0.0371326 -18.3723 15.3206 -0.531309 -18.8142 14.9663 -2.40021 -18.5286 15.0397 
-1.18008 -18.5145 14.5838 -1.90703 -18.485 14.5398 -1.18478 -19.8863 20.4025 
-0.525273 -19.3043 19.9711 -1.91382 -19.3396 20.4139 -2.42351 -19.5864 19.9443 
1.94099 -19.8314 19.3962 2.45808 -19.2481 18.8775 1.04671 -19.5538 19.4754 
0.143627 -19.5032 19.5862 -2.56678 -19.5932 19.0595 2.6106 -19.5022 18.0039 
-2.54438 -19.5624 18.033 2.5978 -19.5162 16.9495 -2.54476 -19.5507 17.0056 
2.47666 -19.7515 15.8565 -2.56884 -19.5387 15.9778 1.92967 -19.3591 15.3869 
1.02093 -19.4038 15.3017 0.118764 -19.2357 15.2612 -0.351296 -19.6606 14.92 
[...]
CELL_DATA 972
SCALARS scalars float
LOOKUP_TABLE default
252 252 252 252 252 252 252 252 252 
252 252 252 252 252 252 252 252 252 
252 252 252 252 252 252 252 252 252 
252 252 252 252 252 252 252 252 252 
252 252 252 252 252 252 252 252 252 
252 252 252 252 252 252 252 252 252 
252 252 252 252 252 252 252 252 252 
252 252 252 252 252 252 252 252 252 
252 252 252 252 252 252 252 252 252 
252 252 252 252 252 252 252 252 252 
252 252 252 252 252 252 252 252 252 
252 252 252 252 252 252 252 252 252 
252 252 252 252 252 252 252 252 252 
252 252 252 252 252 252 252 252 252 
252 252 252 252 252 252 252 252 252 
252 252 252 252 252 252 252 252 252 
252 252 252 252 252 252 252 252 252 
252 252 252 252 252 252 252 252 252 
252 252 252 252 252 252 252 252 252 
252 252 252 252 252 252 252 252 252 
252 252 252 252 252 252 252 252 252 
252 252 252 252 252 252 252 252 252 
252 252 252 252 252 252 252 252 252 
252 252 252 252 252 252 252 252 252 
252 252 252 252 252 252 252 252 252 
252 252 252 252 252 252 252 252 252 
252 252 252 252 252 252 252 252 252 
252 252 252 252 252 252 252 252 252 
252 252 252 252 252 252 252 252 252 
252 252 252 252 252 252 252 252 252 
252 252 252 252 252 252 252 252 252 
252 252 252 252 252 252 252 252 252 
252 252 252 252 252 252 252 252 252 
252 252 252 252 252 252 252 252 252 
252 252 252 252 252 252 252 252 252 
252 252 252 252 252 252 252 252 252 
252 252 252 252 252 252 252 252 252 
252 252 252 252 252 252 252 252 252 
252 252 252 252 252 252 252 252 252 
252 252 252 252 252 252 252 252 252 
252 252 252 252 252 252 252 252 252 
252 252 252 252 252 252 252 252 252 
252 252 252 252 252 252 252 252 252 
252 252 252 252 252 252 252 252 252 
252 252 252 252 252 252 252 252 252 
252 252 252 252 252 252 252 252 252 
252 252 252 252 252 252 252 252 252 
252 252 252 252 252 252 252 252 252 
252 252 252 252 252 252 252 252 252 
252 252 252 252 252 252 252 252 252 
252 252 252 252 252 252 252 252 252 
252 252 252 252 252 252 252 252 252 
252 252 252 252 252 252 252 252 252 
252 252 252 252 252 252 252 252 252 
252 252 252 252 252 252 252 252 252 
252 252 252 252 252 252 252 252 252 
252 252 252 252 252 252 252 252 252 
252 252 252 252 252 252 252 252 252 
252 252 252 252 252 252 252 252 252 
252 252 252 252 252 252 252 252 252 
252 252 252 252 252 252 252 252 252 
252 252 252 252 252 252 252 252 252 
252 252 252 252 252 252 252 252 252 
252 252 252 252 252 252 252 252 252 
252 252 252 252 252 252 252 252 252 
252 252 252 252 252 252 252 252 252 
252 252 252 252 252 252 252 252 252 
252 252 252 252 252 252 252 252 252 
252 252 252 252 252 252 252 252 252 
252 252 252 252 252 252 252 252 252 
252 252 252 252 252 252 252 252 252 
252 252 252 252 252 252 252 252 252 
252 252 252 252 252 252 252 252 252 
252 252 252 252 252 252 252 252 252 
252 252 252 252 252 252 252 252 252 
252 252 252 252 252 252 252 252 252 
252 252 252 252 252 252 252 252 252 
252 252 252 252 252 252 252 252 252 
252 252 252 252 252 252 252 252 252 
252 252 252 252 252 252 252 252 252 
252 252 252 252 252 252 252 252 252 
252 252 252 252 252 252 252 252 252 
252 252 252 252 252 252 252 252 252 
252 252 252 252 252 252 252 252 252 
252 252 252 252 252 252 252 252 252 
252 252 252 252 252 252 252 252 252 
252 252 252 252 252 252 252 252 252 
252 252 252 252 252 252 252 252 252 
252 252 252 252 252 252 252 252 252 
252 252 252 252 252 252 252 252 252 
252 252 252 252 252 252 252 252 252 
252 252 252 252 252 252 252 252 252 
252 252 252 252 252 252 252 252 252 
252 252 252 252 252 252 252 252 252 
252 252 252 252 252 252 252 252 252 
252 252 252 252 252 252 252 252 252 
252 252 252 252 252 252 252 252 252 
252 252 252 252 252 252 252 252 252 
252 252 252 252 252 252 252 252 252 
252 252 252 252 252 252 252 252 252 
252 252 252 252 252 252 252 252 252 
252 252 252 252 252 252 252 252 252 
252 252 252 252 252 252 252 252 252 
252 252 252 252 252 252 252 252 252 
252 252 252 252 252 252 252 252 252 
252 252 252 252 252 252 252 252 252 
252 252 252 252 252 252 252 252 252 
252 252 252 252 252 252 252 252 252 

