# vtk DataFile Version 4.0
vtk output
ASCII
DATASET POLYDATA
POINTS 544 float
1.7778 19.8466 15.8901 1.97063 19.3038 16.5164 2.4104 19.4256 15.9527 
0.811592 19.9208 15.8975 1.09781 19.4143 16.3905 -0.248047 19.9146 15.9037 
0.029319 19.3675 16.3936 -1.23416 19.8545 15.7694 -0.967271 19.3599 16.3439 
-1.64909 19.3835 16.1108 1.98176 19.922 15.0091 2.47764 19.4078 15.0034 
1.09828 20.0572 15.0227 0.0450998 20.072 15.0356 -1.02147 20.0741 14.9796 
-1.93324 19.6186 15.5969 -1.91568 19.8707 14.9071 -2.40247 19.2721 15.1667 
1.95839 19.9094 13.9806 2.44213 19.4072 13.9695 1.08798 20.0362 13.9925 
0.0378587 20.0385 13.9934 -1.02457 20.0606 13.953 -1.92822 19.9389 13.9235 
-2.46042 19.4135 14.1873 1.93877 19.9062 12.9664 2.4339 19.4102 12.9648 
1.05584 20.0217 12.9712 -0.00396409 20.0115 12.9646 -1.06507 20.0247 12.9181 
-1.95188 19.9141 12.8915 -2.45621 19.4234 13.1518 1.94064 19.9051 11.971 
2.43601 19.4079 11.9713 1.05499 20.0208 11.9729 -0.00876784 20.0097 11.9643 
-1.07215 20.0203 11.9157 -1.95682 19.9051 11.8863 -2.45088 19.4106 12.1433 
1.93928 19.9055 10.9771 2.43753 19.4127 10.9703 1.05784 20.0207 10.9805 
-0.00358754 20.0108 10.972 -1.06831 20.0223 10.9243 -1.95648 19.9054 10.8945 
-2.45329 19.4065 11.1495 1.93078 19.9281 9.95704 2.45377 19.442 9.93188 
1.04245 20.0348 9.97695 -0.0155811 20.0161 9.97599 -1.07929 20.0193 9.93407 
-1.97362 19.8963 9.90848 -2.48062 19.3931 10.1619 1.96814 19.9554 8.90269 
2.47219 19.4484 8.92198 1.03262 20.0707 8.91987 -0.0556164 20.0465 8.9398 
-1.12521 20.0226 8.91476 -2.01033 19.8791 8.89081 -2.5054 19.3796 9.15309 
2.09675 19.8468 8.13259 2.31101 19.2912 8.16703 1.16848 19.9482 7.86822 
-0.00413027 20.0489 7.8762 -1.11519 20.0212 7.85436 -2.02982 19.8784 7.83937 
-2.428 19.3979 7.98859 1.7562 19.4936 7.62955 0.897605 19.3907 7.2755 
0.293719 19.3309 6.91296 0.210043 19.8134 7.08634 -0.780889 19.8888 6.96493 
-1.77422 19.7932 6.93581 -2.31164 19.5753 7.07053 -0.254839 19.5747 6.65681 
-1.06007 19.4934 6.5662 -1.85056 19.4257 6.62485 1.9188 18.7838 16.9267 
2.02478 18.1678 17.2492 2.38828 18.7157 16.7467 1.47728 18.3714 17.0682 
2.59657 18.5447 16.0184 1.25244 18.8015 16.7119 0.134354 18.5167 16.5988 
-0.989331 18.4934 16.5258 -2.16918 19.0999 15.8652 -1.80986 18.6848 16.3184 
-2.4045 18.4222 15.8428 2.57496 18.5111 14.9864 -2.6108 18.4958 14.9483 
2.54726 18.5245 13.9625 -2.59331 18.5426 13.8993 2.54671 18.5263 12.9662 
-2.56406 18.5308 12.8852 2.55072 18.5253 11.9717 -2.56411 18.5213 11.891 
2.56926 18.5384 10.9609 -2.59805 18.5051 10.8983 2.57733 18.5478 9.93739 
-2.63112 18.5023 9.89831 2.39898 18.4845 9.04088 -2.45143 18.5943 8.87162 
1.94324 18.3857 8.39659 1.91349 18.9441 7.81698 1.46428 18.3532 7.94101 
-1.21137 18.7889 7.66266 -0.480149 18.4516 7.91932 -1.08876 18.4342 8.32764 
-1.73914 18.4482 8.5051 -2.08465 18.8906 7.97224 1.26222 18.7813 7.55352 
0.390545 18.6554 7.43796 -0.345425 19.0362 6.99762 -1.23747 19.1359 6.81287 
-1.98351 19.1808 7.16533 2.09718 17.4239 17.6233 2.47512 17.6012 17.0308 
0.705238 18.0936 16.9662 1.32467 17.6759 17.5135 -0.0993722 17.7871 16.8608 
0.101189 17.294 17.4726 -0.62314 17.2644 17.0406 2.5635 17.4601 16.0216 
-0.855455 17.7048 16.6869 -1.86084 17.6817 16.5063 -2.48787 17.3874 16.0327 
2.51866 17.4734 14.969 -2.58601 17.4957 14.9407 2.50644 17.4901 13.9617 
-2.53541 17.4996 13.9116 2.50924 17.4892 12.9684 -2.52277 17.486 12.9178 
2.52293 17.4958 11.9678 -2.5547 17.4708 11.9243 2.5508 17.5046 10.9506 
-2.59826 17.4756 10.912 2.4309 17.4084 9.96128 -2.44541 17.5899 9.90103 
2.12745 17.6108 9.27337 2.0582 18.0069 8.91542 1.6417 17.3352 8.84695 
-1.12341 17.9609 8.79964 -0.542186 17.4719 8.96538 -1.15363 17.4895 9.35159 
-1.77309 17.4697 9.55488 -2.05248 17.9709 9.13416 1.14769 17.6593 8.30895 
0.745569 18.0495 7.90383 0.322625 17.2933 8.49091 -0.0945398 17.9543 8.19649 
1.7415 16.9544 18.0538 1.94464 16.1653 18.3511 2.37864 16.6796 17.8041 
0.785971 17.0393 18.0237 1.02955 16.3852 18.42 0.108853 16.9148 18.0113 
0.0760911 16.3983 18.3276 -0.501504 16.4773 18.0017 2.56652 16.4606 17.0382 
-1.40319 16.9954 16.9882 -1.04675 16.5567 17.4972 -2.09752 16.8961 16.8285 
-1.83416 16.4331 17.2505 -2.36128 16.3552 16.877 2.52431 16.4138 15.9989 
-2.56934 16.443 15.997 2.48357 16.452 14.9636 -2.53081 16.4775 14.9607 
2.4796 16.4639 13.9644 -2.49506 16.4649 13.9609 2.48624 16.4658 12.9684 
-2.51551 16.4509 12.9701 2.51786 16.486 11.9568 -2.55814 16.4639 11.9539 
2.52518 16.4682 10.9657 -2.42959 16.5901 10.9164 2.32617 16.313 10.2145 
-1.14162 16.99 9.78887 -0.426721 16.5782 9.85555 -0.804117 16.2134 10.308 
-1.73078 16.3251 10.551 -2.06848 16.9803 10.1406 2.01414 16.8128 9.5019 
1.50087 16.1713 9.07346 -0.188629 16.9056 9.22875 0.382693 16.3606 9.00528 
0.0642521 16.3314 9.58117 0.917115 16.5526 8.61848 1.9514 15.2265 18.4042 
2.45652 15.7334 17.9061 1.06443 15.4996 18.5521 0.0097856 15.506 18.5431 
-1.22264 15.8781 17.9696 -0.939096 15.4991 18.3688 -1.67243 15.2718 18.1211 
2.55843 15.4497 17.0272 -1.9022 15.7628 17.5883 -2.47369 15.3778 17.0852 
2.50892 15.4226 15.9845 -2.55495 15.4615 15.9973 2.48074 15.4557 14.9635 
-2.50262 15.4705 14.9679 2.47955 15.4625 13.967 -2.50033 15.4559 13.9728 
2.49666 15.4749 12.9633 -2.54314 15.46 12.9651 2.5348 15.4971 11.9412 
-2.46155 15.5414 11.8988 2.41785 15.3735 10.9709 -2.1578 15.9233 11.1063 
-1.64596 15.668 10.9226 -1.89831 15.1729 11.3953 2.12215 15.5717 10.2673 
1.96155 16.0748 9.76339 1.7224 15.37 9.7571 -0.14999 16.0521 10.0685 
0.306679 15.6376 9.68265 -0.136263 15.3608 10.2885 -0.910157 15.4062 10.6733 
1.31551 15.1724 9.16024 0.698076 15.5127 9.01435 1.06007 15.6287 8.73004 
1.92648 14.2101 18.3768 2.43929 14.7355 17.8988 1.03759 14.4856 18.4998 
-0.0305864 14.4781 18.5399 -1.06556 14.4467 18.5443 -2.17148 14.9891 17.9018 
-1.8318 14.6002 18.3462 -2.40473 14.3373 17.9024 2.54309 14.4537 17.0093 
-2.58205 14.4162 17.0256 2.50356 14.4403 15.9733 -2.53847 14.4688 15.9872 
2.48284 14.4622 14.9643 -2.49902 14.4665 14.9683 2.48719 14.4687 13.9673 
-2.52512 14.4571 13.9666 2.52062 14.4937 12.9518 -2.55039 14.5029 12.9482 
2.53117 14.4848 11.951 -2.34276 14.5746 12.0889 2.33146 14.291 11.2106 
-1.231 15.0987 11.0353 -0.692402 14.5742 10.9055 -1.15755 14.4273 11.2503 
-1.78144 14.2972 11.6475 1.89144 14.5217 10.5193 1.37749 14.4828 9.85201 
0.575066 14.7272 9.74392 0.0706071 14.2681 10.4793 1.07407 14.5292 9.4908 
0.957072 14.9696 9.05602 1.9381 13.3099 18.5625 2.4463 13.5913 18.0095 
1.05883 13.4906 18.4801 -0.0304317 13.4352 18.4666 -1.10718 13.398 18.5072 
-1.96708 13.6606 18.4032 -2.47304 13.4019 17.8895 2.53615 13.4429 16.9985 
-2.57644 13.4322 17.0036 2.49418 13.4533 15.9663 -2.52481 13.468 15.9801 
2.48358 13.466 14.9659 -2.50576 13.4628 14.966 2.50028 13.4783 13.9627 
-2.53928 13.4745 13.9478 2.53511 13.4961 12.9388 -2.46296 13.5625 12.8865 
2.42161 13.3928 11.9559 -2.15699 13.9493 12.1029 -1.72714 13.6135 11.8665 
-2.08577 13.2046 12.3519 2.12992 13.5819 11.2614 2.0394 13.9674 10.9366 
1.64602 13.3217 10.8613 -0.429619 13.7708 10.9641 -0.955075 13.3598 11.4533 
1.0198 13.6859 10.3919 0.865611 14.1401 10.0005 0.288353 13.2291 10.6614 
1.92817 12.766 18.9198 2.01046 12.1622 19.2405 2.37223 12.685 18.7419 
1.48046 12.3643 19.0682 2.55694 12.488 18.0138 1.24581 12.7797 18.7004 
0.116817 12.48 18.5706 -1.04612 12.4131 18.4815 -1.96977 12.6542 18.3689 
-2.44805 12.4148 17.8798 2.51907 12.4403 16.982 -2.55729 12.4433 16.9957 
2.48512 12.4617 15.9634 -2.516 12.4698 15.9692 2.48815 12.4707 14.9662 
-2.51698 12.4623 14.9599 2.51934 12.4912 13.9552 -2.55268 12.4902 13.9446 
2.52024 12.4669 12.9641 -2.4276 12.4926 13.0586 2.31066 12.3025 12.222 
-1.46114 12.8444 11.9537 -1.86082 12.2279 12.4413 2.02216 12.8181 11.4954 
1.5028 12.176 11.089 -0.146698 13.0141 11.0212 0.345881 12.5101 10.8455 
-0.116643 12.352 11.2347 -0.722167 12.2734 11.6728 0.916985 12.5396 10.651 
1.94534 11.3197 19.5981 2.46461 11.6052 19.0282 0.696778 12.076 18.958 
1.09169 11.5458 19.3697 -0.0914993 11.7792 18.8763 0.0378173 11.3079 19.237 
-0.632516 11.2552 19.0549 2.54772 11.4425 18.0194 -0.849886 11.6794 18.6904 
-1.86653 11.6455 18.5072 -2.46557 11.371 18.0585 2.49544 11.4498 16.9686 
-2.5462 11.4677 16.9838 2.48172 11.4678 15.9636 -2.50717 11.4696 15.9603 
2.49671 11.4804 14.9635 -2.53283 11.4647 14.9506 2.52472 11.4924 13.9471 
-2.55723 11.5168 13.9383 2.40549 11.3594 12.9676 -2.33954 11.5862 13.0849 
2.08849 11.5756 12.2907 1.93355 12.0757 11.792 1.71002 11.4249 11.7652 
-1.16561 12.0952 12.0397 -0.651715 11.5501 11.8923 -1.14765 11.4049 12.2465 
-1.77425 11.2809 12.6378 1.3691 11.1655 11.0017 0.504853 11.7263 10.8795 
-0.0686868 11.3028 11.419 1.00522 11.4604 10.6548 1.90408 10.7685 19.9711 
2.00771 10.1902 20.2522 2.37619 10.7108 19.7851 1.47477 10.3501 20.0835 
2.56389 10.4964 19.0335 1.09592 10.6247 19.6866 0.0457226 10.4863 19.4706 
-1.41509 10.9914 19.007 -0.986498 10.4768 19.371 -2.10576 10.9067 18.846 
-1.86274 10.4272 19.2545 -2.37743 10.3666 18.8841 2.52394 10.431 17.991 
-2.57016 10.4579 18.0017 2.48283 10.4615 16.9604 -2.52593 10.4836 16.9616 
2.48153 10.4748 15.9627 -2.50185 10.4678 15.9564 2.50678 10.4961 14.9532 
-2.53796 10.4826 14.9351 2.52638 10.4797 13.9414 -2.46069 10.5701 13.8739 
2.37688 10.2258 13.1103 -2.14062 10.9393 13.0916 -1.71669 10.5676 12.8718 
-2.07377 10.1809 13.3663 2.02993 10.7841 12.4331 1.64469 10.5176 11.761 
-0.50104 10.678 11.9395 -1.12226 10.3696 12.4682 1.37989 10.2071 10.9797 
0.54265 10.6951 10.8551 0.0361509 10.14 11.4069 1.02514 10.483 10.5933 
1.94409 9.24551 20.4028 2.44187 9.76145 19.8999 0.883892 9.93977 19.9155 
1.16619 9.54228 20.3187 0.42403 9.32478 20.0347 2.55212 9.46401 19.0191 
0.194158 9.7296 19.6797 -0.77928 9.58612 19.6357 -1.83672 9.66615 19.5221 
-2.47736 9.39909 19.0923 2.50704 9.44216 17.9672 -2.56102 9.47731 18.0008 
2.48211 9.46737 16.9553 -2.50496 9.47596 16.9696 2.48878 9.47976 15.9571 
-2.51219 9.46523 15.9662 2.5247 9.50933 14.9375 -2.55164 9.49547 14.95 
2.52117 9.46303 13.9558 -2.42856 9.49299 14.0739 2.2986 9.27346 13.2311 
[...]
CELL_DATA 1084
SCALARS scalars float
LOOKUP_TABLE default
254 254 254 254 254 254 254 254 254 
254 254 254 254 254 254 254 254 254 
254 254 254 254 254 254 254 254 254 
254 254 254 254 254 254 254 254 254 
254 254 254 254 254 254 254 254 254 
254 254 254 254 254 254 254 254 254 
254 254 254 254 254 254 254 254 254 
254 254 254 254 254 254 254 254 254 
254 254 254 254 254 254 254 254 254 
254 254 254 254 254 254 254 254 254 
254 254 254 254 254 254 254 254 254 
254 254 254 254 254 254 254 254 254 
254 254 254 254 254 254 254 254 254 
254 254 254 254 254 254 254 254 254 
254 254 254 254 254 254 254 254 254 
254 254 254 254 254 254 254 254 254 
254 254 254 254 254 254 254 254 254 
254 254 254 254 254 254 254 254 254 
254 254 254 254 254 254 254 254 254 
254 254 254 254 254 254 254 254 254 
254 254 254 254 254 254 254 254 254 
254 254 254 254 254 254 254 254 254 
254 254 254 254 254 254 254 254 254 
254 254 254 254 254 254 254 254 254 
254 254 254 254 254 254 254 254 254 
254 254 254 254 254 254 254 254 254 
254 254 254 254 254 254 254 254 254 
254 254 254 254 254 254 254 254 254 
254 254 254 254 254 254 254 254 254 
254 254 254 254 254 254 254 254 254 
254 254 254 254 254 254 254 254 254 
254 254 254 254 254 254 254 254 254 
254 254 254 254 254 254 254 254 254 
254 254 254 254 254 254 254 254 254 
254 254 254 254 254 254 254 254 254 
254 254 254 254 254 254 254 254 254 
254 254 254 254 254 254 254 254 254 
254 254 254 254 254 254 254 254 254 
254 254 254 254 254 254 254 254 254 
254 254 254 254 254 254 254 254 254 
254 254 254 254 254 254 254 254 254 
254 254 254 254 254 254 254 254 254 
254 254 254 254 254 254 254 254 254 
254 254 254 254 254 254 254 254 254 
254 254 254 254 254 254 254 254 254 
254 254 254 254 254 254 254 254 254 
254 254 254 254 254 254 254 254 254 
254 254 254 254 254 254 254 254 254 
254 254 254 254 254 254 254 254 254 
254 254 254 254 254 254 254 254 254 
254 254 254 254 254 254 254 254 254 
254 254 254 254 254 254 254 254 254 
254 254 254 254 254 254 254 254 254 
254 254 254 254 254 254 254 254 254 
254 254 254 254 254 254 254 254 254 
254 254 254 254 254 254 254 254 254 
254 254 254 254 254 254 254 254 254 
254 254 254 254 254 254 254 254 254 
254 254 254 254 254 254 254 254 254 
254 254 254 254 254 254 254 254 254 
254 254 254 254 254 254 254 254 254 
254 254 254 254 254 254 254 254 254 
254 254 254 254 254 254 254 254 254 
254 254 254 254 254 254 254 254 254 
254 254 254 254 254 254 254 254 254 
254 254 254 254 254 254 254 254 254 
254 254 254 254 254 254 254 254 254 
254 254 254 254 254 254 254 254 254 
254 254 254 254 254 254 254 254 254 
254 254 254 254 254 254 254 254 254 
254 254 254 254 254 254 254 254 254 
254 254 254 254 254 254 254 254 254 
254 254 254 254 254 254 254 254 254 
254 254 254 254 254 254 254 254 254 
254 254 254 254 254 254 254 254 254 
254 254 254 254 254 254 254 254 254 
254 254 254 254 254 254 254 254 254 
254 254 254 254 254 254 254 254 254 
254 254 254 254 254 254 254 254 254 
254 254 254 254 254 254 254 254 254 
254 254 254 254 254 254 254 254 254 
254 254 254 254 254 254 254 254 254 
254 254 254 254 254 254 254 254 254 
254 254 254 254 254 254 254 254 254 
254 254 254 254 254 254 254 254 254 
254 254 254 254 254 254 254 254 254 
254 254 254 254 254 254 254 254 254 
254 254 254 254 254 254 254 254 254 
254 254 254 254 254 254 254 254 254 
254 254 254 254 254 254 254 254 254 
254 254 254 254 254 254 254 254 254 
254 254 254 254 254 254 254 254 254 
254 254 254 254 254 254 254 254 254 
254 254 254 254 254 254 254 254 254 
254 254 254 254 254 254 254 254 254 
254 254 254 254 254 254 254 254 254 
254 254 254 254 254 254 254 254 254 
254 254 254 254 254 254 254 254 254 
254 254 254 254 254 254 254 254 254 
254 254 254 254 254 254 254 254 254 
254 254 254 254 254 254 254 254 254 
254 254 254 254 254 254 254 254 254 
254 254 254 254 254 254 254 254 254 
254 254 254 254 254 254 254 254 254 
254 254 254 254 254 254 254 254 254 
254 254 254 254 254 254 254 254 254 
254 254 254 254 254 254 254 254 254 
254 254 254 254 254 254 254 254 254 
254 254 254 254 254 254 254 254 254 
254 254 254 254 254 254 254 254 254 
254 254 254 254 254 254 254 254 254 
254 254 254 254 254 254 254 254 254 
254 254 254 254 254 254 254 254 254 
254 254 254 254 254 254 254 254 254 
254 254 254 254 254 254 254 254 254 
254 254 254 254 254 254 254 254 254 
254 254 254 254 254 254 254 254 254 
254 254 254 254 254 254 254 254 254 
254 254 254 254 254 254 254 254 254 
254 254 254 254 254 254 254 254 254 
254 254 254 254 
