# vtk DataFile Version 4.0
vtk output
ASCII
DATASET POLYDATA
POINTS 702 float
-1.18008 -22.1076 19.8105 -1.13512 -22.8143 20.3906 -0.440693 -22.4651 19.924 
-2.04588 -22.1689 19.8223 -1.79641 -22.4663 20.3503 -2.32459 -22.6865 20.0997 
1.76326 -22.1176 18.8718 1.99259 -22.7683 19.3453 2.37711 -22.4075 18.7895 
0.813584 -22.0582 18.8859 1.11121 -22.5943 19.3993 -0.248774 -22.0343 19.0795 
0.230215 -22.5691 19.5518 -1.1852 -21.8953 18.8216 -1.92501 -22.0409 18.9887 
-2.46354 -22.6046 19.3132 1.99758 -22.0404 17.9995 2.50076 -22.5615 17.999 
1.10551 -21.9193 17.9853 0.0445048 -21.9271 17.9897 -1.02043 -21.9027 17.9402 
-1.90891 -22.0241 17.9197 -2.44505 -22.5716 18.2378 2.11734 -22.2001 17.2085 
2.42834 -22.8219 16.9116 1.37342 -22.0795 17.1137 0.328474 -22.1082 17.1099 
-0.891198 -22.0756 16.9544 -1.89913 -22.0668 16.9017 -2.43878 -22.5628 17.138 
1.75598 -22.4797 16.5123 0.789035 -22.5133 16.475 -0.270145 -22.5155 16.4737 
-1.12715 -22.4135 16.295 -1.64119 -22.5537 15.7582 -1.80589 -22.2327 16.1587 
-2.40351 -22.673 16.0478 -2.15358 -22.6232 15.4781 -1.29668 -23.7505 20.3728 
-0.511749 -23.1944 20.0515 -1.92802 -23.2647 20.466 -2.46167 -23.5249 19.9327 
1.97897 -23.7361 19.4228 2.50216 -23.1703 18.9087 1.09682 -23.4766 19.5262 
0.0186034 -23.5434 19.6338 -2.61228 -23.529 18.9918 2.62208 -23.4749 18.0059 
-2.59646 -23.4782 17.9304 2.59782 -23.6846 17.1304 -2.5666 -23.477 16.8783 
1.94153 -22.912 15.8752 2.46125 -23.4852 16.0573 1.04932 -22.8772 15.8343 
0.0026044 -22.9137 15.8553 -0.976211 -22.8092 15.817 -2.54987 -23.6188 16.0191 
1.92032 -23.0842 14.9388 2.42228 -23.572 14.9336 1.04347 -22.9942 14.9534 
-0.00393888 -23.0304 14.9701 -1.03844 -23.0159 14.9413 -1.9077 -22.9774 14.956 
-2.45823 -23.4065 15.1561 1.93751 -23.0657 13.9268 2.4353 -23.5575 13.9163 
1.04602 -22.9661 13.9334 -0.0129982 -22.9892 13.9497 -1.06316 -22.9932 13.9191 
-1.94525 -23.1067 13.8964 -2.446 -23.5847 14.1388 2.06143 -23.1565 13.1448 
2.40115 -23.7581 12.8568 1.29711 -23.0552 13.0519 0.247439 -23.082 13.0496 
-0.816039 -23.0917 13.0364 -1.76727 -23.1554 13.0221 -2.38427 -23.5885 13.2021 
1.74514 -23.4151 12.471 0.771771 -23.4292 12.4 -0.283284 -23.4567 12.4015 
-1.34818 -23.6089 12.3859 -2.10034 -23.6822 12.6026 -0.857652 -24.004 19.9656 
-1.46987 -24.4736 20.1167 -2.01045 -24.2578 20.2847 -2.41973 -24.654 19.6738 
1.95223 -24.7813 19.4168 2.47401 -24.2143 18.9095 1.06962 -24.4933 19.5201 
0.00384341 -24.5258 19.4969 -1.08413 -24.7227 19.6911 -2.59436 -24.4175 18.8125 
2.59599 -24.5135 18.0129 -2.56825 -24.5306 17.9567 2.56954 -24.535 16.9824 
-2.5416 -24.5176 16.9164 2.54797 -24.4845 15.9515 -2.52968 -24.4907 15.8925 
2.55046 -24.4491 14.9388 -2.54985 -24.476 14.8769 2.56008 -24.4384 13.9278 
-2.56653 -24.4655 13.868 2.56625 -24.5994 13.0679 -2.45988 -24.5705 12.8809 
2.07051 -23.919 12.0445 2.43045 -24.6428 11.9588 1.31122 -23.937 11.9074 
0.295006 -23.9875 11.9255 -0.700191 -24.0568 11.9497 -1.46181 -24.3064 11.9785 
-2.01484 -24.37 12.2369 1.78504 -24.4641 11.4803 0.777551 -24.6939 11.4592 
-0.279393 -24.6802 11.613 -1.23268 -24.7716 11.6623 -1.90358 -24.8966 19.961 
1.94389 -25.8177 19.4423 2.45006 -25.267 18.9129 1.05405 -25.5345 19.5482 
-0.00663402 -25.5434 19.5026 -1.06685 -25.6172 19.5044 -1.94123 -25.4524 19.5949 
-2.45852 -25.5077 19.0331 2.56978 -25.5522 18.0243 -2.55033 -25.5927 18.0352 
2.54142 -25.5762 16.9901 -2.52213 -25.5467 16.9806 2.52019 -25.528 15.965 
-2.50751 -25.5269 15.9304 2.52171 -25.4834 14.9528 -2.52408 -25.5013 14.9022 
2.53561 -25.4575 13.9455 -2.53795 -25.489 13.8948 2.55096 -25.4565 12.9322 
-2.54025 -25.6449 13.0631 2.55969 -25.6176 12.0618 -1.89391 -24.8894 11.8377 
-2.4017 -25.5283 12.0946 2.08297 -24.971 11.0568 2.41687 -25.6509 10.9506 
1.39094 -25.0902 10.965 0.620023 -25.4054 11.0483 -0.114287 -25.4006 11.2916 
-1.06801 -25.4085 11.3564 -1.91949 -25.5132 11.4384 1.73413 -25.489 10.4778 
0.964162 -25.6097 10.6119 1.91062 -26.8225 19.4403 2.44324 -26.3116 18.9362 
1.02512 -26.5448 19.5608 -0.0392834 -26.5495 19.5295 -1.08895 -26.5992 19.5098 
-1.95637 -26.3597 19.4144 -2.44767 -26.6232 18.9148 2.56157 -26.5853 18.0326 
-2.5558 -26.604 18.0299 2.53169 -26.6016 16.9998 -2.52245 -26.555 17.0124 
2.50228 -26.567 15.9782 -2.49497 -26.5461 15.9774 2.49493 -26.525 14.9591 
-2.49473 -26.5156 14.9454 2.50476 -26.49 13.9402 -2.51326 -26.5021 13.9279 
2.52851 -26.4725 12.9313 -2.53384 -26.5023 12.9218 2.54782 -26.4834 11.9256 
-2.54756 -26.6481 12.0681 2.55649 -26.6229 11.0755 0.0411815 -25.8725 10.6383 
-0.855576 -25.8768 10.9558 -1.72053 -26.0841 10.8027 -2.41422 -26.562 11.1283 
1.94572 -25.8901 9.83081 2.46717 -26.462 10.0157 0.912181 -25.902 9.92052 
0.00109903 -26.0573 9.93931 -0.831991 -26.2014 10.0489 -1.65977 -26.4629 10.1155 
-2.15342 -26.6518 10.3627 2.10485 -26.203 9.13842 2.39819 -26.7863 8.85896 
1.3474 -26.1195 9.04626 0.203448 -26.2182 9.1873 -0.598005 -26.4669 9.14797 
-1.2294 -26.5759 9.55135 1.74111 -26.4672 8.44849 0.777737 -26.4992 8.41156 
-0.0974875 -26.5827 8.5968 1.83992 -27.5533 19.3202 2.39997 -27.399 18.8396 
1.05305 -27.3853 19.4119 -0.00550086 -27.3851 19.3753 -1.06371 -27.4483 19.382 
-1.95253 -27.2932 19.3222 -2.40125 -27.6682 18.7031 2.56231 -27.4311 17.8873 
-2.55298 -27.4317 17.8733 2.54343 -27.5939 17.0239 -2.52903 -27.562 17.0252 
2.51425 -27.5901 15.9945 -2.5041 -27.5505 15.9941 2.49399 -27.5491 14.9728 
-2.48855 -27.523 14.9634 2.49356 -27.52 13.9567 -2.496 -27.5056 13.9315 
2.50602 -27.496 12.9382 -2.51972 -27.5008 12.9058 2.52576 -27.4929 11.9359 
-2.53899 -27.5079 11.9046 2.54336 -27.4686 10.9337 -2.54215 -27.6528 11.0779 
2.55631 -27.4711 9.92141 -1.92415 -26.9267 9.60584 -2.44616 -27.4397 10.2133 
2.5639 -27.6228 9.08413 -1.09624 -26.8358 8.72003 -2.03072 -27.1423 8.75274 
-2.42084 -27.6067 9.19432 1.95327 -26.8754 7.83574 2.45911 -27.4573 8.02514 
1.05795 -26.8246 7.75793 -0.108348 -26.8827 7.92129 -1.00548 -26.9891 7.93604 
-1.72233 -27.1564 7.88043 -2.40165 -27.7111 8.11457 2.0698 -27.1894 7.15884 
2.38402 -27.7734 6.85724 1.33536 -27.0984 7.05248 0.296157 -27.1378 7.0588 
-0.85973 -27.1736 7.19294 -1.64771 -27.3882 7.07254 -2.15577 -27.5924 7.33099 
1.73389 -27.4651 6.46665 0.788135 -27.498 6.41307 -0.267354 -27.5195 6.46437 
-1.14668 -27.5407 6.5962 2.08631 -28.0546 18.9175 1.33927 -28.0321 19.0478 
0.298103 -28.0042 19.0043 -0.77853 -28.0712 18.9955 -1.74788 -28.0456 19.0207 
1.8373 -28.7807 18.5545 2.46186 -28.2986 18.1139 0.781752 -28.679 18.6614 
-0.284617 -28.7082 18.6385 -1.32695 -28.7384 18.659 -2.07574 -28.5401 18.6198 
-2.45112 -28.4883 18.0369 2.56048 -28.5886 17.0334 -2.55186 -28.5955 17.0506 
2.53594 -28.5994 16.0093 -2.52792 -28.5563 16.0237 2.50563 -28.5744 14.9956 
-2.49557 -28.5382 14.9915 2.49419 -28.5436 13.9741 -2.48862 -28.527 13.9591 
2.49466 -28.5238 12.9583 -2.49821 -28.5083 12.9221 2.50348 -28.5109 11.9475 
-2.51566 -28.5143 11.9037 2.51834 -28.494 10.9398 -2.52686 -28.5074 10.9176 
2.53502 -28.488 9.94638 -2.53595 -28.4848 9.93038 2.54662 -28.4608 8.94426 
-2.54746 -28.492 8.92573 2.55128 -28.4661 7.92069 -2.55209 -28.6261 8.085 
2.55416 -28.6205 7.06769 -1.89425 -27.8863 6.57541 -2.45845 -28.3964 7.18477 
2.07544 -27.8619 5.96778 2.4587 -28.4516 6.00332 1.33519 -27.9795 5.75625 
0.253978 -28.0194 5.94433 -0.933065 -27.9863 6.05804 -1.82429 -28.2 5.91167 
-2.38672 -28.6763 6.07449 2.03452 -28.2219 5.23766 2.41336 -28.7924 4.8481 
1.48014 -28.4124 5.06749 0.709693 -28.5057 5.36593 -0.288372 -28.5137 5.49905 
-1.31177 -28.4816 5.46841 -2.06426 -28.6185 5.4484 1.91546 -28.5417 4.63215 
1.85748 -29.5772 18.2924 2.40109 -29.4056 17.8231 0.986213 -29.61 18.4232 
-0.019837 -29.5795 18.5098 -1.05586 -29.6053 18.5138 -1.94678 -29.3494 18.4122 
-2.4419 -29.6091 17.9055 2.56919 -29.4431 16.8776 -2.57571 -29.6161 17.0237 
2.55151 -29.5983 16.0212 -2.54307 -29.566 16.0136 2.52818 -29.5969 15.0036 
-2.51171 -29.5479 15.0058 2.50713 -29.5744 13.9908 -2.49393 -29.5468 13.9841 
2.49755 -29.5464 12.9739 -2.48855 -29.528 12.9523 2.4959 -29.5315 11.9661 
-2.49445 -29.5232 11.9316 2.49846 -29.523 10.9597 -2.50598 -29.5205 10.9221 
2.50654 -29.5122 9.95142 -2.51607 -29.5042 9.91205 2.52009 -29.4949 8.9421 
-2.52494 -29.5018 8.9083 2.53426 -29.4899 7.94482 -2.53443 -29.4799 7.91849 
2.54322 -29.459 6.93119 -2.54703 -29.4721 6.91792 2.56096 -29.4473 5.88938 
-2.55566 -29.6241 6.06173 2.58533 -29.6049 5.04439 1.12152 -28.8085 4.58386 
0.16964 -28.8621 4.95711 -0.750634 -29.0081 4.81678 -1.75302 -29.0218 4.94553 
-2.4109 -29.515 5.12523 1.95318 -28.963 4.13405 2.40583 -29.6221 4.11306 
1.21733 -29.1652 3.90967 0.231819 -29.2084 4.16869 -0.582149 -29.6129 3.91557 
-1.37039 -29.4763 4.35254 -2.04295 -29.6203 4.42699 1.71549 -29.6072 3.60284 
0.755723 -29.6533 3.56165 0.0769412 -29.629 3.6615 2.07804 -30.0664 17.8779 
1.39115 -30.1284 18.057 0.612353 -30.377 18.0998 -0.0911618 -30.4176 18.289 
-1.04959 -30.4756 18.3956 -1.92585 -30.2935 18.3265 -2.38198 -30.5047 17.7148 
1.7553 -30.5899 17.4942 2.42909 -30.3956 16.9789 0.958498 -30.6207 17.7042 
-2.46052 -30.6561 16.7537 2.56276 -30.4561 15.8804 -2.54245 -30.4153 15.86 
2.55497 -30.6102 15.0041 -2.52848 -30.5645 15.0304 2.5386 -30.6016 13.9963 
-2.50911 -30.5618 14.0049 2.51927 -30.5756 12.9966 -2.48953 -30.5401 12.9724 
2.50472 -30.5524 11.9866 -2.48606 -30.5341 11.9587 2.4971 -30.5432 10.9759 
-2.48859 -30.5319 10.956 2.49645 -30.5341 9.9663 -2.49109 -30.5277 9.95021 
2.50021 -30.5243 8.95952 -2.49673 -30.5231 8.93724 2.5074 -30.5143 7.95271 
-2.50935 -30.5092 7.91911 2.5211 -30.4914 6.93985 -2.5279 -30.4946 6.90613 
2.5492 -30.462 5.93212 -2.54096 -30.4793 5.90745 2.57006 -30.4546 4.91064 
-2.54433 -30.6211 5.05797 2.47381 -30.7251 3.83093 -1.1541 -29.7941 3.85238 
-1.72719 -30.0255 3.7444 -2.40392 -30.5353 4.09107 1.96561 -30.3287 3.37337 
1.06473 -30.3351 3.24678 0.0254247 -30.1663 3.3054 -0.950429 -30.1556 3.26778 
-0.395056 -30.6614 2.84575 -1.60416 -30.4066 3.03526 -2.11136 -30.5965 3.2663 
-1.14975 -30.8369 2.61178 0.0623493 -30.87 17.6624 -1.05142 -30.9617 17.8934 
[...]
CELL_DATA 1400
SCALARS scalars float
LOOKUP_TABLE default
251 251 251 251 251 251 251 251 251 
251 251 251 251 251 251 251 251 251 
251 251 251 251 251 251 251 251 251 
251 251 251 251 251 251 251 251 251 
251 251 251 251 251 251 251 251 251 
251 251 251 251 251 251 251 251 251 
251 251 251 251 251 251 251 251 251 
251 251 251 251 251 251 251 251 251 
251 251 251 251 251 251 251 251 251 
251 251 251 251 251 251 251 251 251 
251 251 251 251 251 251 251 251 251 
251 251 251 251 251 251 251 251 251 
251 251 251 251 251 251 251 251 251 
251 251 251 251 251 251 251 251 251 
251 251 251 251 251 251 251 251 251 
251 251 251 251 251 251 251 251 251 
251 251 251 251 251 251 251 251 251 
251 251 251 251 251 251 251 251 251 
251 251 251 251 251 251 251 251 251 
251 251 251 251 251 251 251 251 251 
251 251 251 251 251 251 251 251 251 
251 251 251 251 251 251 251 251 251 
251 251 251 251 251 251 251 251 251 
251 251 251 251 251 251 251 251 251 
251 251 251 251 251 251 251 251 251 
251 251 251 251 251 251 251 251 251 
251 251 251 251 251 251 251 251 251 
251 251 251 251 251 251 251 251 251 
251 251 251 251 251 251 251 251 251 
251 251 251 251 251 251 251 251 251 
251 251 251 251 251 251 251 251 251 
251 251 251 251 251 251 251 251 251 
251 251 251 251 251 251 251 251 251 
251 251 251 251 251 251 251 251 251 
251 251 251 251 251 251 251 251 251 
251 251 251 251 251 251 251 251 251 
251 251 251 251 251 251 251 251 251 
251 251 251 251 251 251 251 251 251 
251 251 251 251 251 251 251 251 251 
251 251 251 251 251 251 251 251 251 
251 251 251 251 251 251 251 251 251 
251 251 251 251 251 251 251 251 251 
251 251 251 251 251 251 251 251 251 
251 251 251 251 251 251 251 251 251 
251 251 251 251 251 251 251 251 251 
251 251 251 251 251 251 251 251 251 
251 251 251 251 251 251 251 251 251 
251 251 251 251 251 251 251 251 251 
251 251 251 251 251 251 251 251 251 
251 251 251 251 251 251 251 251 251 
251 251 251 251 251 251 251 251 251 
251 251 251 251 251 251 251 251 251 
251 251 251 251 251 251 251 251 251 
251 251 251 251 251 251 251 251 251 
251 251 251 251 251 251 251 251 251 
251 251 251 251 251 251 251 251 251 
251 251 251 251 251 251 251 251 251 
251 251 251 251 251 251 251 251 251 
251 251 251 251 251 251 251 251 251 
251 251 251 251 251 251 251 251 251 
251 251 251 251 251 251 251 251 251 
251 251 251 251 251 251 251 251 251 
251 251 251 251 251 251 251 251 251 
251 251 251 251 251 251 251 251 251 
251 251 251 251 251 251 251 251 251 
251 251 251 251 251 251 251 251 251 
251 251 251 251 251 251 251 251 251 
251 251 251 251 251 251 251 251 251 
251 251 251 251 251 251 251 251 251 
251 251 251 251 251 251 251 251 251 
251 251 251 251 251 251 251 251 251 
251 251 251 251 251 251 251 251 251 
251 251 251 251 251 251 251 251 251 
251 251 251 251 251 251 251 251 251 
251 251 251 251 251 251 251 251 251 
251 251 251 251 251 251 251 251 251 
251 251 251 251 251 251 251 251 251 
251 251 251 251 251 251 251 251 251 
251 251 251 251 251 251 251 251 251 
251 251 251 251 251 251 251 251 251 
251 251 251 251 251 251 251 251 251 
251 251 251 251 251 251 251 251 251 
251 251 251 251 251 251 251 251 251 
251 251 251 251 251 251 251 251 251 
251 251 251 251 251 251 251 251 251 
251 251 251 251 251 251 251 251 251 
251 251 251 251 251 251 251 251 251 
251 251 251 251 251 251 251 251 251 
251 251 251 251 251 251 251 251 251 
251 251 251 251 251 251 251 251 251 
251 251 251 251 251 251 251 251 251 
251 251 251 251 251 251 251 251 251 
251 251 251 251 251 251 251 251 251 
251 251 251 251 251 251 251 251 251 
251 251 251 251 251 251 251 251 251 
251 251 251 251 251 251 251 251 251 
251 251 251 251 251 251 251 251 251 
251 251 251 251 251 251 251 251 251 
251 251 251 251 251 251 251 251 251 
251 251 251 251 251 251 251 251 251 
251 251 251 251 251 251 251 251 251 
251 251 251 251 251 251 251 251 251 
251 251 251 251 251 251 251 251 251 
251 251 251 251 251 251 251 251 251 
251 251 251 251 251 251 251 251 251 
251 251 251 251 251 251 251 251 251 
251 251 251 251 251 251 251 251 251 
251 251 251 251 251 251 251 251 251 
251 251 251 251 251 251 251 251 251 
251 251 251 251 251 251 251 251 251 
251 251 251 251 251 251 251 251 251 
251 251 251 251 251 251 251 251 251 
251 251 251 251 251 251 251 251 251 
251 251 251 251 251 251 251 251 251 
251 251 251 251 251 251 251 251 251 
251 251 251 251 251 251 251 251 251 
251 251 251 251 251 251 251 251 251 
251 251 251 251 251 251 251 251 251 
251 251 251 251 251 251 251 251 251 
251 251 251 251 251 251 251 251 251 
251 251 251 251 251 251 251 251 251 
251 251 251 251 251 251 251 251 251 
251 251 251 251 251 251 251 251 251 
251 251 251 251 251 251 251 251 251 
251 251 251 251 251 251 251 251 251 
251 251 251 251 251 251 251 251 251 
251 251 251 251 251 251 251 251 251 
251 251 251 251 251 251 251 251 251 
251 251 251 251 251 251 251 251 251 
251 251 251 251 251 251 251 251 251 
251 251 251 251 251 251 251 251 251 
251 251 251 251 251 251 251 251 251 
251 251 251 251 251 251 251 251 251 
251 251 251 251 251 251 251 251 251 
251 251 251 251 251 251 251 251 251 
251 251 251 251 251 251 251 251 251 
251 251 251 251 251 251 251 251 251 
251 251 251 251 251 251 251 251 251 
251 251 251 251 251 251 251 251 251 
251 251 251 251 251 251 251 251 251 
251 251 251 251 251 251 251 251 251 
251 251 251 251 251 251 251 251 251 
251 251 251 251 251 251 251 251 251 
251 251 251 251 251 251 251 251 251 
251 251 251 251 251 251 251 251 251 
251 251 251 251 251 251 251 251 251 
251 251 251 251 251 251 251 251 251 
251 251 251 251 251 251 251 251 251 
251 251 251 251 251 251 251 251 251 
251 251 251 251 251 251 251 251 251 
251 251 251 251 251 251 251 251 251 
251 251 251 251 251 251 251 251 251 
251 251 251 251 251 251 251 251 251 
251 251 251 251 251 251 251 251 251 
251 251 251 251 251 251 251 251 251 
251 251 251 251 251 
