# vtk DataFile Version 4.0
vtk output
ASCII
DATASET POLYDATA
POINTS 18210 float
-44.3139 22.8496 -24.1459 -44.0616 22.5399 -23.5786 -43.5744 22.32 -24.1986 
-44.9951 22.8125 -24.2314 -44.6625 22.5427 -23.543 -45.3441 22.4389 -23.9106 
-44.1194 22.8243 -24.9402 -43.6364 22.421 -24.9181 -45.0653 22.9496 -25.1003 
-45.606 22.5551 -24.7385 -43.8996 22.4216 -25.5836 -44.5891 22.4943 -26.2322 
-44.7927 22.8468 -25.7893 -45.8677 22.6221 -25.5273 -45.6861 22.7687 -26.0348 
-46.3024 22.1661 -25.9844 -45.3759 22.561 -26.5399 -46.0537 22.3694 -26.6128 
-44.0668 22.0057 -23.1823 -44.0748 21.4855 -22.6036 -43.4576 21.5144 -23.0174 
-45.2661 21.9861 -23.1655 -44.7448 21.4958 -22.4709 -46.0387 21.7078 -23.2361 
-45.6945 21.4727 -22.5327 -46.3712 21.3915 -22.8921 -42.1332 21.6925 -23.9667 
-41.9047 21.4049 -23.565 -41.6736 21.1721 -24.1639 -42.938 21.8308 -23.8675 
-42.5859 21.5406 -23.4551 -45.9598 21.9867 -24.1404 -46.5375 21.4791 -23.7548 
-42.2856 21.5033 -24.4923 -42.9197 21.6871 -24.5355 -43.2408 21.8431 -25.0863 
-46.1202 22.1746 -25.1703 -46.544 21.5841 -24.9582 -43.2787 21.8379 -25.9883 
-42.7249 21.2916 -25.5609 -42.7784 21.2594 -26.1209 -44.0592 22.196 -26.3046 
-46.6844 21.4698 -25.9099 -43.1217 21.5061 -26.5441 -43.4746 21.1817 -27.2454 
-43.9101 21.8725 -26.9474 -44.9557 22.1818 -27.0355 -45.9428 22.074 -27.2267 
-46.5441 21.6818 -26.827 -44.0792 21.5814 -27.6852 -44.4049 21.3717 -28.1725 
-44.7831 21.8295 -27.8187 -45.6851 21.823 -27.9533 -46.5563 21.3324 -28.008 
-45.0743 21.3708 -28.3971 -45.9061 21.2389 -28.5896 -45.1081 20.7339 -21.3239 
-44.9426 20.4389 -20.6992 -44.4588 20.4639 -21.0365 -45.3807 20.3798 -20.8181 
-44.1218 20.9835 -22.0566 -43.9535 20.4914 -21.5406 -43.4645 20.4975 -22.0464 
-45.1563 21.1298 -21.9833 -45.8889 20.5361 -21.3181 -46.1712 20.9833 -22.0583 
-47.2526 20.7857 -22.3184 -46.685 20.4899 -21.5934 -47.4535 20.3984 -21.9077 
-42.233 20.9835 -23.0456 -41.9634 20.2738 -22.7917 -41.6317 20.7405 -23.3014 
-43.0759 21.0303 -22.7799 -42.6449 20.2997 -22.4955 -47.0344 21.1118 -23.1288 
-48.1218 20.3363 -22.4307 -47.9093 20.7898 -23.0997 -48.5567 20.3754 -23.0718 
-41.4324 20.3721 -23.8815 -47.0078 21.1544 -24.1869 -47.6611 20.8134 -24.0786 
-48.5278 20.3164 -23.9259 -42.1118 20.9865 -25.135 -41.6012 20.3092 -24.8785 
-42.6667 21.3514 -24.9888 -47.1186 20.9719 -25.1449 -47.6464 20.5346 -24.9208 
-48.0787 20.3358 -24.572 -41.9584 20.412 -25.5065 -42.4517 20.44 -25.9599 
-47.0211 20.9932 -26.3062 -47.5021 20.4759 -25.7638 -43.0474 20.6529 -26.5786 
-43.4926 20.302 -27.2146 -47.0273 21.001 -27.3397 -47.5056 20.3647 -26.9414 
-43.8607 21.0804 -27.9487 -43.6482 20.4242 -27.9102 -47.0526 20.8885 -28.0112 
-47.3317 20.3692 -27.9981 -44.2499 20.7188 -28.3761 -45.092 20.645 -28.7603 
-45.9137 20.7717 -29.0225 -45.5946 20.4449 -29.2526 -46.5695 20.4836 -29.1069 
-47.0523 20.4976 -28.5937 -46.1173 20.3709 -29.4956 -46.1445 19.8136 -19.2091 
-46.0538 19.5077 -18.5278 -45.4839 19.4797 -18.9568 -46.9575 19.7545 -19.1865 
-46.6573 19.5074 -18.5274 -47.3344 19.4364 -18.8794 -45.1173 19.9769 -20.1399 
-44.9532 19.4679 -19.4725 -44.4652 19.4664 -20.0292 -46.1865 19.9903 -20.1862 
-47.066 19.854 -20.0905 -47.5831 19.5129 -19.6723 -43.9636 19.9906 -21.0532 
-43.9607 19.4789 -20.5775 -43.4815 19.4714 -21.066 -46.032 20.1889 -20.8549 
-47.0519 20.0939 -21.1101 -47.8626 19.5493 -20.4616 -47.8768 19.7598 -21.1287 
-48.374 19.3701 -21.0181 -43.1472 19.9168 -21.8275 -42.9253 19.3144 -21.5221 
-42.5886 19.4059 -22.0414 -47.8919 20.048 -21.8112 -48.5457 19.5826 -21.8531 
-42.0774 19.3357 -22.556 -41.5919 19.7784 -23.1785 -49.0281 19.9373 -23.392 
-48.8695 19.7736 -22.6493 -49.3318 19.2218 -22.8692 -41.3085 19.4991 -24.1717 
-49.0406 19.9098 -23.9643 -49.3628 19.2622 -23.8652 -41.3369 19.4298 -25.1122 
-48.0134 20.0607 -25.3169 -48.5287 19.7732 -24.898 -49.0266 19.5321 -24.5264 
-41.8351 19.6011 -25.6301 -42.4699 19.1754 -26.1064 -47.9814 19.957 -26.272 
-48.5151 19.3792 -25.9384 -42.9614 19.6745 -26.4203 -43.6467 19.5457 -26.6176 
-43.8644 19.7558 -27.2126 -44.3156 19.2869 -26.8648 -47.9542 19.8087 -27.1348 
-48.3145 19.3502 -26.9656 -44.0027 19.1671 -27.4762 -43.7101 19.5381 -27.8717 
-47.6976 19.5907 -28.0156 -48.0939 19.3238 -27.6537 -44.1483 19.7903 -28.5493 
-44.8519 20.0417 -29.2977 -44.2642 19.3494 -29.0916 -47.049 19.9738 -29.1198 
-47.3332 19.6727 -28.8266 -44.2395 19.7579 -29.8007 -43.9918 19.1626 -29.5984 
-43.7667 19.2941 -30.3468 -44.8064 19.9126 -30.0548 -45.6487 19.9724 -29.9197 
-46.4001 19.6982 -29.9025 -46.9895 19.2995 -29.5251 -44.2892 19.4158 -30.5477 
-45.2445 19.3857 -30.466 -46.0183 19.2837 -30.3589 -46.0795 18.9943 -18.1407 
-46.0775 18.4598 -17.5803 -45.5043 18.4579 -18.005 -47.2551 18.9906 -18.1585 
-46.7421 18.4735 -17.4603 -48.0057 18.7123 -18.2291 -47.6603 18.4663 -17.5367 
-48.3129 18.3851 -17.9118 -44.9766 18.9644 -18.99 -44.9905 18.4587 -18.5089 
-44.4946 18.4569 -19.0397 -48.0916 18.9768 -19.1575 -48.5872 18.4707 -18.6916 
-43.9815 18.9601 -20.0627 -43.8224 18.3924 -19.6444 -43.3949 18.5349 -20.2165 
-48.2926 19.1668 -20.2636 -48.8614 18.5329 -19.4532 -48.8859 18.7414 -20.1291 
-49.3571 18.3629 -19.9734 -43.1696 18.8952 -20.8406 -42.9847 18.4776 -20.5871 
-42.5789 18.5638 -21.2697 -48.9492 18.9444 -21.179 -49.5108 18.4202 -20.7892 
-42.2457 18.6824 -22.0676 -49.1206 19.134 -22.1388 -49.5465 18.5623 -21.9418 
-41.9359 18.3516 -22.3816 -41.5121 18.6015 -23.0973 -49.6575 18.5876 -23.0348 
-40.2419 18.6961 -24.122 -40.1584 18.2431 -23.8082 -39.7786 18.4993 -24.063 
-40.922 18.8969 -23.9911 -40.8405 18.3167 -23.5366 -49.7001 18.5007 -23.9169 
-40.148 18.3179 -24.4227 -40.685 18.2849 -24.9534 -40.7402 18.907 -24.7433 
-49.0068 19.0625 -25.3799 -49.5271 18.5559 -24.9439 -41.2038 18.7461 -25.3302 
-41.8573 18.5648 -25.5891 -42.5043 18.0823 -25.8939 -44.3949 18.9205 -26.161 
-43.6982 18.5837 -26.167 -44.0423 18.2393 -25.8103 -44.7328 18.3499 -25.5676 
-44.9827 18.7671 -25.9966 -45.2835 18.3042 -25.7401 -48.9586 18.7879 -26.1651 
-49.315 18.3532 -26.0125 -43.0921 18.5678 -26.3485 -44.9318 18.4708 -26.4913 
-44.4358 18.695 -27.1298 -48.6953 18.6122 -26.9991 -49.0966 18.2964 -26.678 
-44.0208 18.2322 -27.5643 -43.7332 18.629 -27.952 -47.9515 18.8773 -28.2614 
-48.3099 18.6851 -27.8004 -43.858 18.5869 -28.5702 -44.1394 18.6764 -29.0921 
-47.5321 18.5693 -29.0586 -47.9972 18.1136 -28.5325 -43.8218 18.3511 -29.4694 
-43.6544 18.6751 -30.1061 -46.6097 18.7723 -30.1591 -47.1135 18.3329 -29.8106 
-43.8587 18.9734 -30.9695 -43.6319 18.3349 -30.9329 -44.2605 18.6554 -31.0477 
-45.018 18.416 -30.7455 -46.1049 18.4162 -30.5232 -44.0022 18.2781 -31.3009 
-48.2118 17.7939 -16.2368 -47.9195 17.3788 -15.6779 -47.4275 17.5203 -16.145 
-49.2936 17.8493 -16.158 -48.7481 17.4646 -15.5122 -50.0613 17.764 -16.2556 
-49.7271 17.4941 -15.5838 -50.4059 17.427 -15.966 -46.0785 17.9467 -17.1829 
-46.0851 17.4305 -16.6274 -45.5287 17.4404 -17.0421 -47.2513 17.9605 -16.813 
-46.6864 17.4527 -16.4213 -48.1994 18.1187 -17.1827 -49.0309 17.9981 -17.039 
-49.9139 17.8762 -17.0119 -50.5567 17.5098 -16.7935 -45.0047 17.961 -18.034 
-45.0077 17.4518 -17.5454 -44.5008 17.4656 -18.0242 -49.0116 18.1007 -18.1444 
-49.8509 17.8563 -18.0253 -50.5291 17.5113 -17.7982 -43.2233 17.7419 -19.0261 
-43.0853 17.4735 -18.6634 -42.6102 17.426 -19.1971 -43.9868 17.9628 -18.9235 
-43.6742 17.4747 -18.464 -49.2845 18.1688 -19.2568 -49.8899 17.8374 -19.0723 
-50.5149 17.4753 -18.8 -42.985 18.052 -19.9788 -42.3014 17.5688 -20.1021 
-49.922 17.9544 -20.1569 -50.52 17.468 -19.7847 -42.1928 17.812 -20.8583 
-41.9747 17.4452 -20.5542 -41.6208 17.2265 -21.2522 -50.0312 17.955 -21.2884 
-50.5329 17.4742 -20.7872 -42.0153 17.9829 -21.7468 -41.6763 17.6163 -22.2524 
-50.0191 17.9669 -22.3216 -50.5218 17.3593 -21.9172 -41.3156 17.5326 -22.9017 
-50.0229 17.9746 -23.3298 -50.3452 17.4549 -22.8509 -39.8622 18.2126 -24.0381 
-40.4233 17.6068 -24.0324 -40.7972 17.6817 -23.4366 -50.021 17.9756 -24.3445 
-50.3766 17.3478 -23.7884 -40.9513 17.6209 -24.7047 -41.3099 18.0082 -25.0503 
-41.7564 17.5066 -24.8491 -41.9802 17.8889 -25.2018 -42.3848 17.389 -25.31 
-45.1191 17.9455 -25.1645 -44.6811 17.5952 -25.1011 -44.9864 17.316 -24.8346 
-45.5055 17.3997 -25.1472 -49.9557 17.8252 -25.185 -50.3057 17.3132 -24.7588 
-42.7705 17.3074 -25.9102 -43.4439 17.7761 -26.0783 -43.9349 17.3194 -25.5498 
-45.4016 17.7007 -26.0314 -49.6588 17.7062 -25.8907 -50.031 17.1235 -25.5289 
-42.9462 17.6408 -26.2362 -45.0624 17.2541 -26.5917 -44.5446 17.7658 -27.0842 
-48.9653 17.9003 -27.265 -49.3479 17.5313 -26.76 -44.0079 17.2242 -27.5667 
-43.5588 17.7288 -28.1474 -48.5157 17.7626 -27.9229 -49.0163 17.1363 -27.5318 
-43.3597 17.775 -29.0393 -42.8154 17.1351 -28.5651 -42.7201 17.3579 -29.1739 
-43.9179 18.2205 -29.0017 -47.6861 17.5673 -29.1046 -48.0236 17.1701 -28.6113 
-42.9872 17.4733 -29.5581 -43.3061 17.7324 -30.1853 -46.8849 18.0056 -30.2247 
-47.3706 17.4914 -29.7873 -43.3675 17.385 -31.1667 -44.4683 17.7643 -31.1397 
-45.174 17.2161 -30.7587 -46.0521 17.456 -30.6071 -46.8935 17.3637 -30.397 
-43.8515 17.3428 -31.4214 -48.2846 16.8142 -11.1025 -48.0481 16.5051 -10.5363 
-47.5652 16.451 -11.1407 -49.1551 16.8012 -11.2407 -48.6387 16.5027 -10.5108 
-49.3917 16.449 -10.8208 -47.9529 16.8997 -12.0918 -47.2428 16.5876 -12.0741 
-48.9877 17.0046 -12.0132 -49.8298 16.5692 -11.4345 -49.8622 16.7961 -12.0827 
-50.3437 16.4255 -11.9534 -47.2911 16.8032 -12.9567 -46.7764 16.4282 -12.5814 
-46.567 16.4553 -13.3393 -48.1186 16.9788 -13.1525 -48.9636 17.0176 -13.0128 
-50.0525 16.8899 -13.0797 -50.6043 16.5003 -12.7311 -47.1382 16.8097 -14.0253 
-46.4975 16.454 -14.2905 -48.0073 16.9644 -13.9914 -49.0135 16.9996 -14.0194 
-50.0335 16.9807 -14.0588 -50.8921 16.5785 -13.4775 -50.8967 16.781 -14.1138 
-51.3989 16.4426 -14.0014 -46.9084 16.8109 -14.9992 -46.3605 16.503 -15.1068 
-47.8856 17.0698 -14.9822 -48.9952 17.1252 -14.8709 -50.1057 17.1069 -15.0979 
-50.936 16.8471 -15.0613 -51.5547 16.4929 -14.8201 -46.1507 16.9223 -16.0585 
[...]
CELL_DATA 36436
SCALARS scalars float
LOOKUP_TABLE default
1030 1030 1030 1030 1030 1030 1030 1030 1030 
1030 1030 1030 1030 1030 1030 1030 1030 1030 
1030 1030 1030 1030 1030 1030 1030 1030 1030 
1030 1030 1030 1030 1030 1030 1030 1030 1030 
1030 1030 1030 1030 1030 1030 1030 1030 1030 
1030 1030 1030 1030 1030 1030 1030 1030 1030 
1030 1030 1030 1030 1030 1030 1030 1030 1030 
1030 1030 1030 1030 1030 1030 1030 1030 1030 
1030 1030 1030 1030 1030 1030 1030 1030 1030 
1030 1030 1030 1030 1030 1030 1030 1030 1030 
1030 1030 1030 1030 1030 1030 1030 1030 1030 
1030 1030 1030 1030 1030 1030 1030 1030 1030 
1030 1030 1030 1030 1030 1030 1030 1030 1030 
1030 1030 1030 1030 1030 1030 1030 1030 1030 
1030 1030 1030 1030 1030 1030 1030 1030 1030 
1030 1030 1030 1030 1030 1030 1030 1030 1030 
1030 1030 1030 1030 1030 1030 1030 1030 1030 
1030 1030 1030 1030 1030 1030 1030 1030 1030 
1030 1030 1030 1030 1030 1030 1030 1030 1030 
1030 1030 1030 1030 1030 1030 1030 1030 1030 
1030 1030 1030 1030 1030 1030 1030 1030 1030 
1030 1030 1030 1030 1030 1030 1030 1030 1030 
1030 1030 1030 1030 1030 1030 1030 1030 1030 
1030 1030 1030 1030 1030 1030 1030 1030 1030 
1030 1030 1030 1030 1030 1030 1030 1030 1030 
1030 1030 1030 1030 1030 1030 1030 1030 1030 
1030 1030 1030 1030 1030 1030 1030 1030 1030 
1030 1030 1030 1030 1030 1030 1030 1030 1030 
1030 1030 1030 1030 1030 1030 1030 1030 1030 
1030 1030 1030 1030 1030 1030 1030 1030 1030 
1030 1030 1030 1030 1030 1030 1030 1030 1030 
1030 1030 1030 1030 1030 1030 1030 1030 1030 
1030 1030 1030 1030 1030 1030 1030 1030 1030 
1030 1030 1030 1030 1030 1030 1030 1030 1030 
1030 1030 1030 1030 1030 1030 1030 1030 1030 
1030 1030 1030 1030 1030 1030 1030 1030 1030 
1030 1030 1030 1030 1030 1030 1030 1030 1030 
1030 1030 1030 1030 1030 1030 1030 1030 1030 
1030 1030 1030 1030 1030 1030 1030 1030 1030 
1030 1030 1030 1030 1030 1030 1030 1030 1030 
1030 1030 1030 1030 1030 1030 1030 1030 1030 
1030 1030 1030 1030 1030 1030 1030 1030 1030 
1030 1030 1030 1030 1030 1030 1030 1030 1030 
1030 1030 1030 1030 1030 1030 1030 1030 1030 
1030 1030 1030 1030 1030 1030 1030 1030 1030 
1030 1030 1030 1030 1030 1030 1030 1030 1030 
1030 1030 1030 1030 1030 1030 1030 1030 1030 
1030 1030 1030 1030 1030 1030 1030 1030 1030 
1030 1030 1030 1030 1030 1030 1030 1030 1030 
1030 1030 1030 1030 1030 1030 1030 1030 1030 
1030 1030 1030 1030 1030 1030 1030 1030 1030 
1030 1030 1030 1030 1030 1030 1030 1030 1030 
1030 1030 1030 1030 1030 1030 1030 1030 1030 
1030 1030 1030 1030 1030 1030 1030 1030 1030 
1030 1030 1030 1030 1030 1030 1030 1030 1030 
1030 1030 1030 1030 1030 1030 1030 1030 1030 
1030 1030 1030 1030 1030 1030 1030 1030 1030 
1030 1030 1030 1030 1030 1030 1030 1030 1030 
1030 1030 1030 1030 1030 1030 1030 1030 1030 
1030 1030 1030 1030 1030 1030 1030 1030 1030 
1030 1030 1030 1030 1030 1030 1030 1030 1030 
1030 1030 1030 1030 1030 1030 1030 1030 1030 
1030 1030 1030 1030 1030 1030 1030 1030 1030 
1030 1030 1030 1030 1030 1030 1030 1030 1030 
1030 1030 1030 1030 1030 1030 1030 1030 1030 
1030 1030 1030 1030 1030 1030 1030 1030 1030 
1030 1030 1030 1030 1030 1030 1030 1030 1030 
1030 1030 1030 1030 1030 1030 1030 1030 1030 
1030 1030 1030 1030 1030 1030 1030 1030 1030 
1030 1030 1030 1030 1030 1030 1030 1030 1030 
1030 1030 1030 1030 1030 1030 1030 1030 1030 
1030 1030 1030 1030 1030 1030 1030 1030 1030 
1030 1030 1030 1030 1030 1030 1030 1030 1030 
1030 1030 1030 1030 1030 1030 1030 1030 1030 
1030 1030 1030 1030 1030 1030 1030 1030 1030 
1030 1030 1030 1030 1030 1030 1030 1030 1030 
1030 1030 1030 1030 1030 1030 1030 1030 1030 
1030 1030 1030 1030 1030 1030 1030 1030 1030 
1030 1030 1030 1030 1030 1030 1030 1030 1030 
1030 1030 1030 1030 1030 1030 1030 1030 1030 
1030 1030 1030 1030 1030 1030 1030 1030 1030 
1030 1030 1030 1030 1030 1030 1030 1030 1030 
1030 1030 1030 1030 1030 1030 1030 1030 1030 
1030 1030 1030 1030 1030 1030 1030 1030 1030 
1030 1030 1030 1030 1030 1030 1030 1030 1030 
1030 1030 1030 1030 1030 1030 1030 1030 1030 
1030 1030 1030 1030 1030 1030 1030 1030 1030 
1030 1030 1030 1030 1030 1030 1030 1030 1030 
1030 1030 1030 1030 1030 1030 1030 1030 1030 
1030 1030 1030 1030 1030 1030 1030 1030 1030 
1030 1030 1030 1030 1030 1030 1030 1030 1030 
1030 1030 1030 1030 1030 1030 1030 1030 1030 
1030 1030 1030 1030 1030 1030 1030 1030 1030 
1030 1030 1030 1030 1030 1030 1030 1030 1030 
1030 1030 1030 1030 1030 1030 1030 1030 1030 
1030 1030 1030 1030 1030 1030 1030 1030 1030 
1030 1030 1030 1030 1030 1030 1030 1030 1030 
1030 1030 1030 1030 1030 1030 1030 1030 1030 
1030 1030 1030 1030 1030 1030 1030 1030 1030 
1030 1030 1030 1030 1030 1030 1030 1030 1030 
1030 1030 1030 1030 1030 1030 1030 1030 1030 
1030 1030 1030 1030 1030 1030 1030 1030 1030 
1030 1030 1030 1030 1030 1030 1030 1030 1030 
1030 1030 1030 1030 1030 1030 1030 1030 1030 
1030 1030 1030 1030 1030 1030 1030 1030 1030 
1030 1030 1030 1030 1030 1030 1030 1030 1030 
1030 1030 1030 1030 1030 1030 1030 1030 1030 
1030 1030 1030 1030 1030 1030 1030 1030 1030 
1030 1030 1030 1030 1030 1030 1030 1030 1030 
1030 1030 1030 1030 1030 1030 1030 1030 1030 
1030 1030 1030 1030 1030 1030 1030 1030 1030 
1030 1030 1030 1030 1030 1030 1030 1030 1030 
1030 1030 1030 1030 1030 1030 1030 1030 1030 
1030 1030 1030 1030 1030 1030 1030 1030 1030 
1030 1030 1030 1030 1030 1030 1030 1030 1030 
1030 1030 1030 1030 1030 1030 1030 1030 1030 
1030 1030 1030 1030 1030 1030 1030 1030 1030 
1030 1030 1030 1030 1030 1030 1030 1030 1030 
1030 1030 1030 1030 1030 1030 1030 1030 1030 
1030 1030 1030 1030 1030 1030 1030 1030 1030 
1030 1030 1030 1030 1030 1030 1030 1030 1030 
1030 1030 1030 1030 1030 1030 1030 1030 1030 
1030 1030 1030 1030 1030 1030 1030 1030 1030 
1030 1030 1030 1030 1030 1030 1030 1030 1030 
1030 1030 1030 1030 1030 1030 1030 1030 1030 
1030 1030 1030 1030 1030 1030 1030 1030 1030 
1030 1030 1030 1030 1030 1030 1030 1030 1030 
1030 1030 1030 1030 1030 1030 1030 1030 1030 
1030 1030 1030 1030 1030 1030 1030 1030 1030 
1030 1030 1030 1030 1030 1030 1030 1030 1030 
1030 1030 1030 1030 1030 1030 1030 1030 1030 
1030 1030 1030 1030 1030 1030 1030 1030 1030 
1030 1030 1030 1030 1030 1030 1030 1030 1030 
1030 1030 1030 1030 1030 1030 1030 1030 1030 
1030 1030 1030 1030 1030 1030 1030 1030 1030 
1030 1030 1030 1030 1030 1030 1030 1030 1030 
1030 1030 1030 1030 1030 1030 1030 1030 1030 
1030 1030 1030 1030 1030 1030 1030 1030 1030 
1030 1030 1030 1030 1030 1030 1030 1030 1030 
1030 1030 1030 1030 1030 1030 1030 1030 1030 
1030 1030 1030 1030 1030 1030 1030 1030 1030 
1030 1030 1030 1030 1030 1030 1030 1030 1030 
1030 1030 1030 1030 1030 1030 1030 1030 1030 
1030 1030 1030 1030 1030 1030 1030 1030 1030 
1030 1030 1030 1030 1030 1030 1030 1030 1030 
1030 1030 1030 1030 1030 1030 1030 1030 1030 
1030 1030 1030 1030 1030 1030 1030 1030 1030 
1030 1030 1030 1030 1030 1030 1030 1030 1030 
1030 1030 1030 1030 1030 1030 1030 1030 1030 
1030 1030 1030 1030 1030 1030 1030 1030 1030 
1030 1030 1030 1030 1030 1030 1030 1030 1030 
1030 1030 1030 1030 1030 1030 1030 1030 1030 
1030 1030 1030 1030 1030 1030 1030 1030 1030 
1030 1030 1030 1030 1030 1030 1030 1030 1030 
1030 1030 1030 1030 1030 1030 1030 1030 1030 
1030 1030 1030 1030 1030 1030 1030 1030 1030 
1030 1030 1030 1030 1030 1030 1030 1030 1030 
1030 1030 1030 1030 1030 1030 1030 1030 1030 
1030 1030 1030 1030 1030 1030 1030 1030 1030 
1030 1030 1030 1030 1030 1030 1030 1030 1030 
1030 1030 1030 1030 1030 1030 1030 1030 1030 
1030 1030 1030 1030 1030 1030 1030 1030 1030 
1030 1030 1030 1030 1030 1030 1030 1030 1030 
1030 1030 1030 1030 1030 1030 1030 1030 1030 
1030 1030 1030 1030 1030 1030 1030 1030 1030 
1030 1030 1030 1030 1030 1030 1030 1030 1030 
1030 1030 1030 1030 1030 1030 1030 1030 1030 
1030 1030 1030 1030 1030 1030 1030 1030 1030 
1030 1030 1030 1030 1030 1030 1030 1030 1030 
1030 1030 1030 1030 1030 1030 1030 1030 1030 
1030 1030 1030 1030 1030 1030 1030 1030 1030 
1030 1030 1030 1030 1030 1030 1030 1030 1030 
1030 1030 1030 1030 1030 1030 1030 1030 1030 
1030 1030 1030 1030 1030 1030 1030 1030 1030 
1030 1030 1030 1030 1030 1030 1030 1030 1030 
1030 1030 1030 1030 1030 1030 1030 1030 1030 
1030 1030 1030 1030 1030 1030 1030 1030 1030 
1030 1030 1030 1030 1030 1030 1030 1030 1030 
1030 1030 1030 1030 1030 1030 1030 1030 1030 
1030 1030 1030 1030 1030 1030 1030 1030 1030 
1030 1030 1030 1030 1030 1030 1030 1030 1030 
1030 1030 1030 1030 1030 1030 1030 1030 1030 
1030 1030 1030 1030 1030 1030 1030 1030 1030 
1030 1030 1030 1030 1030 1030 1030 1030 1030 
1030 1030 1030 1030 1030 1030 1030 1030 1030 
1030 1030 1030 1030 1030 1030 1030 1030 1030 
1030 1030 1030 1030 1030 1030 1030 1030 1030 
1030 1030 1030 1030 1030 1030 1030 1030 1030 
1030 1030 1030 1030 1030 1030 1030 1030 1030 
1030 1030 1030 1030 1030 1030 1030 1030 1030 
1030 1030 1030 1030 1030 1030 1030 1030 1030 
1030 1030 1030 1030 1030 1030 1030 1030 1030 
1030 1030 1030 1030 1030 1030 1030 1030 1030 
1030 1030 1030 1030 1030 1030 1030 1030 1030 
1030 1030 1030 1030 1030 1030 1030 1030 1030 
1030 1030 1030 1030 1030 1030 1030 1030 1030 
1030 1030 1030 1030 1030 1030 1030 1030 1030 
1030 1030 1030 1030 1030 1030 1030 1030 1030 
1030 1030 1030 1030 1030 1030 1030 1030 1030 
1030 1030 1030 1030 1030 1030 1030 1030 1030 
1030 1030 1030 1030 1030 1030 1030 1030 1030 
1030 1030 1030 1030 1030 1030 1030 1030 1030 
1030 1030 1030 1030 1030 1030 1030 1030 1030 
1030 1030 1030 1030 1030 1030 1030 1030 1030 
1030 1030 1030 1030 1030 1030 1030 1030 1030 
1030 1030 1030 1030 1030 1030 1030 1030 1030 
1030 1030 1030 1030 1030 1030 1030 1030 1030 
1030 1030 1030 1030 1030 1030 1030 1030 1030 
1030 1030 1030 1030 1030 1030 1030 1030 1030 
1030 1030 1030 1030 1030 1030 1030 1030 1030 
1030 1030 1030 1030 1030 1030 1030 1030 1030 
1030 1030 1030 1030 1030 1030 1030 1030 1030 
1030 1030 1030 1030 1030 1030 1030 1030 1030 
1030 1030 1030 1030 1030 1030 1030 1030 1030 
1030 1030 1030 1030 1030 1030 1030 1030 1030 
1030 1030 1030 1030 1030 1030 1030 1030 1030 
1030 1030 1030 1030 1030 1030 1030 1030 1030 
1030 1030 1030 1030 1030 1030 1030 1030 1030 
1030 1030 1030 1030 1030 1030 1030 1030 1030 
1030 1030 1030 1030 1030 1030 1030 1030 1030 
1030 1030 1030 1030 1030 1030 1030 1030 1030 
1030 1030 1030 1030 1030 1030 1030 1030 1030 
1030 1030 1030 1030 1030 1030 1030 1030 1030 
1030 1030 1030 1030 1030 1030 1030 1030 1030 
1030 1030 1030 1030 1030 1030 1030 1030 1030 
1030 1030 1030 1030 1030 1030 1030 1030 1030 
1030 1030 1030 1030 1030 1030 1030 1030 1030 
1030 1030 1030 1030 1030 1030 1030 1030 1030 
1030 1030 1030 1030 1030 1030 1030 1030 1030 
1030 1030 1030 1030 1030 1030 1030 1030 1030 
1030 1030 1030 1030 1030 1030 1030 1030 1030 
1030 1030 1030 1030 1030 1030 1030 1030 1030 
1030 1030 1030 1030 1030 1030 1030 1030 1030 
1030 1030 1030 1030 1030 1030 1030 1030 1030 
1030 1030 1030 1030 1030 1030 1030 1030 1030 
1030 1030 1030 1030 1030 1030 1030 1030 1030 
1030 1030 1030 1030 1030 1030 1030 1030 1030 
1030 1030 1030 1030 1030 1030 1030 1030 1030 
1030 1030 1030 1030 1030 1030 1030 1030 1030 
1030 1030 1030 1030 1030 1030 1030 1030 1030 
1030 1030 1030 1030 1030 1030 1030 1030 1030 
1030 1030 1030 1030 1030 1030 1030 1030 1030 
1030 1030 1030 1030 1030 1030 1030 1030 1030 
1030 1030 1030 1030 1030 1030 1030 1030 1030 
1030 1030 1030 1030 1030 1030 1030 1030 1030 
1030 1030 1030 1030 1030 1030 1030 1030 1030 
1030 1030 1030 1030 1030 1030 1030 1030 1030 
1030 1030 1030 1030 1030 1030 1030 1030 1030 
1030 1030 1030 1030 1030 1030 1030 1030 1030 
1030 1030 1030 1030 1030 1030 1030 1030 1030 
1030 1030 1030 1030 1030 1030 1030 1030 1030 
1030 1030 1030 1030 1030 1030 1030 1030 1030 
1030 1030 1030 1030 1030 1030 1030 1030 1030 
1030 1030 1030 1030 1030 1030 1030 1030 1030 
1030 1030 1030 1030 1030 1030 1030 1030 1030 
1030 1030 1030 1030 1030 1030 1030 1030 1030 
1030 1030 1030 1030 1030 1030 1030 1030 1030 
1030 1030 1030 1030 1030 1030 1030 1030 1030 
1030 1030 1030 1030 1030 1030 1030 1030 1030 
1030 1030 1030 1030 1030 1030 1030 1030 1030 
1030 1030 1030 1030 1030 1030 1030 1030 1030 
1030 1030 1030 1030 1030 1030 1030 1030 1030 
1030 1030 1030 1030 1030 1030 1030 1030 1030 
1030 1030 1030 1030 1030 1030 1030 1030 1030 
1030 1030 1030 1030 1030 1030 1030 1030 1030 
1030 1030 1030 1030 1030 1030 1030 1030 1030 
1030 1030 1030 1030 1030 1030 1030 1030 1030 
1030 1030 1030 1030 1030 1030 1030 1030 1030 
1030 1030 1030 1030 1030 1030 1030 1030 1030 
1030 1030 1030 1030 1030 1030 1030 1030 1030 
1030 1030 1030 1030 1030 1030 1030 1030 1030 
1030 1030 1030 1030 1030 1030 1030 1030 1030 
1030 1030 1030 1030 1030 1030 1030 1030 1030 
1030 1030 1030 1030 1030 1030 1030 1030 1030 
1030 1030 1030 1030 1030 1030 1030 1030 1030 
1030 1030 1030 1030 1030 1030 1030 1030 1030 
1030 1030 1030 1030 1030 1030 1030 1030 1030 
1030 1030 1030 1030 1030 1030 1030 1030 1030 
1030 1030 1030 1030 1030 1030 1030 1030 1030 
1030 1030 1030 1030 1030 1030 1030 1030 1030 
1030 1030 1030 1030 1030 1030 1030 1030 1030 
1030 1030 1030 1030 1030 1030 1030 1030 1030 
1030 1030 1030 1030 1030 1030 1030 1030 1030 
1030 1030 1030 1030 1030 1030 1030 1030 1030 
1030 1030 1030 1030 1030 1030 1030 1030 1030 
1030 1030 1030 1030 1030 1030 1030 1030 1030 
1030 1030 1030 1030 1030 1030 1030 1030 1030 
1030 1030 1030 1030 1030 1030 1030 1030 1030 
1030 1030 1030 1030 1030 1030 1030 1030 1030 
1030 1030 1030 1030 1030 1030 1030 1030 1030 
1030 1030 1030 1030 1030 1030 1030 1030 1030 
1030 1030 1030 1030 1030 1030 1030 1030 1030 
1030 1030 1030 1030 1030 1030 1030 1030 1030 
1030 1030 1030 1030 1030 1030 1030 1030 1030 
1030 1030 1030 1030 1030 1030 1030 1030 1030 
1030 1030 1030 1030 1030 1030 1030 1030 1030 
1030 1030 1030 1030 1030 1030 1030 1030 1030 
1030 1030 1030 1030 1030 1030 1030 1030 1030 
1030 1030 1030 1030 1030 1030 1030 1030 1030 
1030 1030 1030 1030 1030 1030 1030 1030 1030 
1030 1030 1030 1030 1030 1030 1030 1030 1030 
1030 1030 1030 1030 1030 1030 1030 1030 1030 
1030 1030 1030 1030 1030 1030 1030 1030 1030 
1030 1030 1030 1030 1030 1030 1030 1030 1030 
1030 1030 1030 1030 1030 1030 1030 1030 1030 
1030 1030 1030 1030 1030 1030 1030 1030 1030 
1030 1030 1030 1030 1030 1030 1030 1030 1030 
1030 1030 1030 1030 1030 1030 1030 1030 1030 
1030 1030 1030 1030 1030 1030 1030 1030 1030 
1030 1030 1030 1030 1030 1030 1030 1030 1030 
1030 1030 1030 1030 1030 1030 1030 1030 1030 
1030 1030 1030 1030 1030 1030 1030 1030 1030 
1030 1030 1030 1030 1030 1030 1030 1030 1030 
1030 1030 1030 1030 1030 1030 1030 1030 1030 
1030 1030 1030 1030 1030 1030 1030 1030 1030 
1030 1030 1030 1030 1030 1030 1030 1030 1030 
1030 1030 1030 1030 1030 1030 1030 1030 1030 
1030 1030 1030 1030 1030 1030 1030 1030 1030 
1030 1030 1030 1030 1030 1030 1030 1030 1030 
1030 1030 1030 1030 1030 1030 1030 1030 1030 
1030 1030 1030 1030 1030 1030 1030 1030 1030 
1030 1030 1030 1030 1030 1030 1030 1030 1030 
1030 1030 1030 1030 1030 1030 1030 1030 1030 
1030 1030 1030 1030 1030 1030 1030 1030 1030 
1030 1030 1030 1030 1030 1030 1030 1030 1030 
1030 1030 1030 1030 1030 1030 1030 1030 1030 
1030 1030 1030 1030 1030 1030 1030 1030 1030 
1030 1030 1030 1030 1030 1030 1030 1030 1030 
1030 1030 1030 1030 1030 1030 1030 1030 1030 
1030 1030 1030 1030 1030 1030 1030 1030 1030 
1030 1030 1030 1030 1030 1030 1030 1030 1030 
1030 1030 1030 1030 1030 1030 1030 1030 1030 
1030 1030 1030 1030 1030 1030 1030 1030 1030 
1030 1030 1030 1030 1030 1030 1030 1030 1030 
1030 1030 1030 1030 1030 1030 1030 1030 1030 
1030 1030 1030 1030 1030 1030 1030 1030 1030 
1030 1030 1030 1030 1030 1030 1030 1030 1030 
1030 1030 1030 1030 1030 1030 1030 1030 1030 
1030 1030 1030 1030 1030 1030 1030 1030 1030 
1030 1030 1030 1030 1030 1030 1030 1030 1030 
1030 1030 1030 1030 1030 1030 1030 1030 1030 
1030 1030 1030 1030 1030 1030 1030 1030 1030 
1030 1030 1030 1030 1030 1030 1030 1030 1030 
1030 1030 1030 1030 1030 1030 1030 1030 1030 
1030 1030 1030 1030 1030 1030 1030 1030 1030 
1030 1030 1030 1030 1030 1030 1030 1030 1030 
1030 1030 1030 1030 1030 1030 1030 1030 1030 
1030 1030 1030 1030 1030 1030 1030 1030 1030 
1030 1030 1030 1030 1030 1030 1030 1030 1030 
1030 1030 1030 1030 1030 1030 1030 1030 1030 
1030 1030 1030 1030 1030 1030 1030 1030 1030 
1030 1030 1030 1030 1030 1030 1030 1030 1030 
1030 1030 1030 1030 1030 1030 1030 1030 1030 
1030 1030 1030 1030 1030 1030 1030 1030 1030 
1030 1030 1030 1030 1030 1030 1030 1030 1030 
1030 1030 1030 1030 1030 1030 1030 1030 1030 
1030 1030 1030 1030 1030 1030 1030 1030 1030 
1030 1030 1030 1030 1030 1030 1030 1030 1030 
1030 1030 1030 1030 1030 1030 1030 1030 1030 
1030 1030 1030 1030 1030 1030 1030 1030 1030 
1030 1030 1030 1030 1030 1030 1030 1030 1030 
1030 1030 1030 1030 1030 1030 1030 1030 1030 
1030 1030 1030 1030 1030 1030 1030 1030 1030 
1030 1030 1030 1030 1030 1030 1030 1030 1030 
1030 1030 1030 1030 1030 1030 1030 1030 1030 
1030 1030 1030 1030 1030 1030 1030 1030 1030 
1030 1030 1030 1030 1030 1030 1030 1030 1030 
1030 1030 1030 1030 1030 1030 1030 1030 1030 
1030 1030 1030 1030 1030 1030 1030 1030 1030 
1030 1030 1030 1030 1030 1030 1030 1030 1030 
1030 1030 1030 1030 1030 1030 1030 1030 1030 
1030 1030 1030 1030 1030 1030 1030 1030 1030 
1030 1030 1030 1030 1030 1030 1030 1030 1030 
1030 1030 1030 1030 1030 1030 1030 1030 1030 
1030 1030 1030 1030 1030 1030 1030 1030 1030 
1030 1030 1030 1030 1030 1030 1030 1030 1030 
1030 1030 1030 1030 1030 1030 1030 1030 1030 
1030 1030 1030 1030 1030 1030 1030 1030 1030 
1030 1030 1030 1030 1030 1030 1030 1030 1030 
1030 1030 1030 1030 1030 1030 1030 1030 1030 
1030 1030 1030 1030 1030 1030 1030 1030 1030 
1030 1030 1030 1030 1030 1030 1030 1030 1030 
1030 1030 1030 1030 1030 1030 1030 1030 1030 
1030 1030 1030 1030 1030 1030 1030 1030 1030 
1030 1030 1030 1030 1030 1030 1030 1030 1030 
1030 1030 1030 1030 1030 1030 1030 1030 1030 
1030 1030 1030 1030 1030 1030 1030 1030 1030 
1030 1030 1030 1030 1030 1030 1030 1030 1030 
1030 1030 1030 1030 1030 1030 1030 1030 1030 
1030 1030 1030 1030 1030 1030 1030 1030 1030 
1030 1030 1030 1030 1030 1030 1030 1030 1030 
1030 1030 1030 1030 1030 1030 1030 1030 1030 
1030 1030 1030 1030 1030 1030 1030 1030 1030 
1030 1030 1030 1030 1030 1030 1030 1030 1030 
1030 1030 1030 1030 1030 1030 1030 1030 1030 
1030 1030 1030 1030 1030 1030 1030 1030 1030 
1030 1030 1030 1030 1030 1030 1030 1030 1030 
1030 1030 1030 1030 1030 1030 1030 1030 1030 
1030 1030 1030 1030 1030 1030 1030 1030 1030 
1030 1030 1030 1030 1030 1030 1030 1030 1030 
1030 1030 1030 1030 1030 1030 1030 1030 1030 
1030 1030 1030 1030 1030 1030 1030 1030 1030 
1030 1030 1030 1030 1030 1030 1030 1030 1030 
1030 1030 1030 1030 1030 1030 1030 1030 1030 
1030 1030 1030 1030 1030 1030 1030 1030 1030 
1030 1030 1030 1030 1030 1030 1030 1030 1030 
1030 1030 1030 1030 1030 1030 1030 1030 1030 
1030 1030 1030 1030 1030 1030 1030 1030 1030 
1030 1030 1030 1030 1030 1030 1030 1030 1030 
1030 1030 1030 1030 1030 1030 1030 1030 1030 
1030 1030 1030 1030 1030 1030 1030 1030 1030 
1030 1030 1030 1030 1030 1030 1030 1030 1030 
1030 1030 1030 1030 1030 1030 1030 1030 1030 
1030 1030 1030 1030 1030 1030 1030 1030 1030 
1030 1030 1030 1030 1030 1030 1030 1030 1030 
1030 1030 1030 1030 1030 1030 1030 1030 1030 
1030 1030 1030 1030 1030 1030 1030 1030 1030 
1030 1030 1030 1030 1030 1030 1030 1030 1030 
1030 1030 1030 1030 1030 1030 1030 1030 1030 
1030 1030 1030 1030 1030 1030 1030 1030 1030 
1030 1030 1030 1030 1030 1030 1030 1030 1030 
1030 1030 1030 1030 1030 1030 1030 1030 1030 
1030 1030 1030 1030 1030 1030 1030 1030 1030 
1030 1030 1030 1030 1030 1030 1030 1030 1030 
1030 1030 1030 1030 1030 1030 1030 1030 1030 
1030 1030 1030 1030 1030 1030 1030 1030 1030 
1030 1030 1030 1030 1030 1030 1030 1030 1030 
1030 1030 1030 1030 1030 1030 1030 1030 1030 
1030 1030 1030 1030 1030 1030 1030 1030 1030 
1030 1030 1030 1030 1030 1030 1030 1030 1030 
1030 1030 1030 1030 1030 1030 1030 1030 1030 
1030 1030 1030 1030 1030 1030 1030 1030 1030 
1030 1030 1030 1030 1030 1030 1030 1030 1030 