# vtk DataFile Version 4.0
vtk output
ASCII
DATASET POLYDATA
POINTS 13852 float
-33.0448 9.75937 -38.2486 -33.0843 9.22051 -37.5144 -32.6873 9.4219 -38.1219 
-33.4722 9.40443 -38.0431 -32.8762 9.85833 -39.1463 -32.444 9.39001 -38.9691 
-33.4585 9.60003 -38.7664 -32.3046 9.79591 -39.9546 -32.0311 9.15816 -39.5808 
-31.7887 9.41415 -40.0516 -32.9602 9.90108 -40.2215 -33.4747 9.58559 -39.787 
-31.8961 9.42105 -40.6247 -32.5175 9.45707 -41.2537 -32.7013 9.76189 -40.823 
-33.3918 9.54445 -40.7599 -35.0245 9.63974 -41.0048 -35.1148 9.29558 -40.7815 
-34.583 9.21226 -41.0764 -35.4649 9.38929 -40.9614 -33.1023 9.45893 -41.3469 
-35.3009 9.25779 -41.2383 -33.9418 8.66184 -34.9634 -33.7132 8.292 -34.7147 
-33.6883 8.58638 -34.9612 -34.2036 8.20991 -35.0077 -32.9887 8.66972 -36.2016 
-32.8552 8.33694 -35.552 -32.6091 8.38288 -36.0296 -33.9416 8.36851 -35.3504 
-33.2746 8.42573 -35.9488 -32.8833 8.8614 -36.7603 -32.4679 8.56375 -37.1331 
-33.451 8.62149 -36.8162 -31.0708 8.68218 -38.2246 -30.9904 8.50157 -37.9106 
-30.7658 8.47513 -38.354 -31.1985 8.33928 -38.1352 -32.3637 8.64847 -38.3038 
-34.1265 8.98609 -38.3794 -33.9901 8.50397 -37.563 -34.5802 8.33545 -37.9927 
-30.9307 8.66637 -38.7825 -30.6817 8.41677 -38.9516 -31.3056 8.39614 -38.7398 
-32.2671 8.69833 -39.0476 -33.9605 9.21656 -39.2093 -35.0325 8.33169 -38.3986 
-34.6189 8.77829 -39.1419 -35.3773 8.34642 -38.9051 -30.9011 8.25263 -39.3837 
-31.4988 8.72069 -40.0575 -32.0002 8.56069 -39.451 -34.132 9.07279 -40.2037 
-34.6881 8.56379 -39.8422 -35.1131 8.41626 -39.4156 -31.2453 8.80426 -40.9886 
-30.7616 8.38772 -40.6282 -30.6454 8.38889 -41.1901 -32.0118 9.16621 -41.3067 
-33.7246 9.22885 -41.2914 -34.9321 8.61325 -40.4629 -35.9133 8.92917 -41.0848 
-35.7342 8.60133 -40.8308 -36.1531 8.45122 -41.0707 -31.0882 8.53283 -41.6133 
-31.5119 8.42062 -42.2124 -31.9177 8.81207 -41.9372 -33.0247 9.14221 -41.9489 
-34.2685 8.91141 -42.1134 -35.0633 8.50764 -41.6475 -34.6879 8.44965 -42.092 
-35.837 8.61341 -41.2975 -32.1535 8.55434 -42.6543 -32.5251 8.51519 -43.1048 
-32.9591 8.85108 -42.96 -33.8469 9.05084 -42.9384 -35.0494 8.30737 -42.4665 
-34.7064 8.81467 -43.2264 -35.4704 8.3641 -43.0557 -32.9107 8.41605 -43.623 
-33.4642 8.38874 -44.2273 -33.9051 8.82318 -43.8063 -34.5528 8.59667 -43.9876 
-35.2352 8.24747 -43.5905 -33.962 8.25931 -44.3829 -33.2979 8.18583 -35.167 
-33.284 7.38053 -34.6391 -32.6945 7.76941 -35.1971 -34.0858 7.50271 -34.5493 
-34.5784 7.46114 -34.9562 -32.4355 7.67736 -36.0324 -33.8708 8.08032 -36.1912 
-34.4982 7.65753 -35.7575 -32.0713 7.81788 -36.9181 -32.2593 7.23141 -36.5184 
-31.5944 7.4166 -37.1989 -33.9798 8.10333 -36.984 -34.4926 7.56154 -36.8708 
-30.9298 8.11953 -38.1753 -31.9071 7.90617 -37.8858 -31.4056 7.45875 -37.9576 
-34.9994 7.97014 -38.0299 -34.9741 7.4572 -37.5533 -35.4951 7.4953 -38.0268 
-31.2788 7.78074 -38.415 -30.5115 7.76618 -38.9114 -31.7441 8.20197 -39.0979 
-36.0179 7.93656 -39.3766 -36.0335 7.48182 -38.5261 -36.7352 7.14416 -39.2411 
-30.1872 7.82238 -39.9366 -29.8531 7.32107 -39.4745 -29.6138 7.33449 -40.12 
-30.8586 8.1646 -40.0849 -35.2469 8.12191 -39.9844 -35.946 7.78201 -40.1057 
-36.8812 7.59224 -39.6591 -36.7179 7.71259 -39.9721 -37.1393 7.54942 -40.0146 
-30.1674 7.97762 -40.9137 -29.5553 7.39352 -41.0641 -35.6539 7.72753 -40.7873 
-35.8231 8.07253 -41.2263 -36.3788 7.3212 -40.5381 -36.9652 7.4921 -40.2309 
-30.0331 7.91318 -42.0606 -29.5448 7.42847 -42.1183 -30.7885 8.18419 -42.0134 
-34.9668 8.1284 -42.0497 -35.5525 7.62983 -41.8246 -29.9283 7.79958 -42.8561 
-29.6434 7.19494 -42.9788 -30.6565 7.8919 -42.9436 -31.7913 8.11151 -42.9923 
-35.9313 7.94136 -43.1779 -35.853 7.72917 -42.6394 -36.2924 7.21387 -42.8473 
-30.2803 7.36727 -43.3827 -31.2452 7.37618 -43.4566 -32.2224 7.619 -43.6614 
-32.9029 7.95307 -44.0705 -32.5779 7.17624 -44.1016 -34.4431 7.89659 -44.1264 
-34.9858 7.2651 -43.7174 -35.9437 7.42959 -43.4081 -33.2619 7.69357 -44.427 
-33.6985 7.35722 -44.403 -32.9 7.04197 -35.2368 -33.4267 6.57296 -34.8853 
-34.0771 6.41361 -34.5475 -35.0068 6.91745 -35.2975 -34.8786 6.55985 -34.5819 
-35.4674 6.34058 -34.9289 -31.8106 6.96951 -36.2543 -31.9143 6.4043 -35.5645 
-31.5155 6.31785 -36.1276 -32.8716 6.9956 -36.1676 -32.2748 6.457 -35.8175 
-33.4327 6.46021 -35.6856 -35.0016 6.93882 -36.287 -35.5095 6.44443 -35.7404 
-30.2406 6.72754 -37.0666 -30.1679 6.42571 -36.849 -29.841 6.50278 -37.0165 
-31.0906 6.95038 -36.8446 -30.8369 6.43353 -36.6957 -32.5122 6.53734 -36.9404 
-32.8976 6.90229 -37.0986 -33.4873 6.51785 -36.7772 -34.9891 6.99386 -36.98 
-35.5171 6.55633 -36.8249 -30.0589 6.57676 -37.4225 -30.3099 6.29949 -37.9802 
-30.6906 7.08251 -37.9266 -32.8579 6.70087 -37.8322 -32.6037 6.19297 -38.0726 
-33.5167 6.34861 -37.9974 -35.9961 6.96208 -38.0343 -35.8128 6.70927 -37.6213 
-36.4646 6.23241 -38.1321 -30.1045 6.9038 -38.7614 -29.9964 6.14728 -38.6192 
-29.6338 6.67461 -39.3147 -33.0549 6.36861 -38.5043 -37.0641 6.74623 -39.0434 
-36.8438 6.71384 -38.7634 -37.1281 6.50542 -39.0371 -29.3091 6.53218 -40.1525 
-33.0323 6.70922 -40.376 -32.6599 6.3939 -40.2031 -32.8803 6.39573 -39.6758 
-33.287 6.27483 -39.9367 -36.867 7.16082 -40.0874 -36.7957 6.33727 -39.744 
-36.9967 6.58414 -39.2717 -29.2574 6.68975 -41.32 -32.8988 6.72829 -40.9398 
-32.7267 6.24662 -40.907 -33.2204 6.47676 -40.8495 -36.0491 6.97019 -41.401 
-36.5898 6.45 -40.9668 -29.3033 6.4778 -42.3893 -32.9781 6.54532 -41.2709 
-36.0985 7.07114 -42.1863 -36.4036 6.54375 -42.1068 -29.5808 6.31951 -43.094 
-36.4234 6.46733 -42.9495 -30.085 6.50095 -43.4527 -30.8225 6.6601 -43.5997 
-31.7621 6.63826 -43.7667 -32.3107 6.36728 -44.1508 -34.096 7.10922 -44.0337 
-33.5822 6.59002 -44.1461 -34.2393 6.32981 -43.7469 -35.19 6.34393 -43.5866 
-35.9223 6.50276 -43.4721 -32.9836 6.48404 -44.382 -32.0698 5.95384 -35.0862 
-31.8696 5.14393 -34.6505 -31.5279 5.49304 -35.3204 -32.5121 5.54587 -35.0526 
-33.9568 6.00617 -35.2311 -34.482 5.61095 -34.9173 -35.097 5.44847 -34.5758 
-35.9941 5.88958 -35.2879 -35.8749 5.56527 -34.5808 -36.4665 5.22112 -35.09 
-31.5366 5.49465 -36.0159 -32.642 5.69442 -35.9768 -33.9988 5.97474 -36.2559 
-34.4971 5.36422 -35.8659 -36.2242 5.93462 -36.3013 -36.5195 5.30354 -36.0726 
-30.1821 6.21615 -37.2134 -30.6981 6.036 -36.9532 -31.3226 5.54799 -36.6695 
-32.6037 5.6535 -37.0307 -34.0181 6.00481 -37.3337 -34.3605 5.4821 -36.8853 
-36.3037 6.05556 -37.1829 -36.8931 5.49724 -36.6376 -36.8329 5.6875 -36.9178 
-37.1302 5.43074 -37.0318 -30.7327 5.35617 -37.5198 -30.312 5.37841 -38.3282 
-32.604 5.49919 -37.8916 -34.0423 5.89635 -38.0301 -34.3611 5.25106 -37.9081 
-36.7932 5.46648 -37.366 -36.5418 5.21766 -37.9388 -30.0504 5.58819 -38.6452 
-29.6001 5.71543 -39.1985 -32.9653 6.17207 -39.0646 -32.6365 5.7629 -39.0261 
-33.5769 5.70834 -39.1846 -34.0594 5.47754 -38.6075 -36.8849 6.23697 -39.013 
-36.6869 5.42813 -38.8239 -29.0318 5.85413 -39.9315 -28.9294 5.24532 -39.504 
-28.6913 5.49907 -40.2565 -32.6615 5.60398 -40.0495 -33.3724 5.6015 -40.2686 
-36.9573 5.62506 -39.609 -37.0032 5.91406 -40.3968 -37.2998 5.23938 -39.8585 
-28.9348 6.02771 -40.7541 -28.6027 5.37858 -41.0482 -32.9082 5.61546 -40.5939 
-33.0565 6.10279 -41.04 -36.9176 5.82874 -41.1576 -37.2395 5.41543 -40.712 
-28.9352 5.95841 -41.7245 -28.6953 5.154 -41.9296 -36.6374 5.60465 -41.9537 
-36.9362 5.34191 -41.3004 -29.0221 5.59051 -42.4161 -29.4551 5.37191 -42.9687 
-36.4239 5.46582 -42.9716 -29.9666 5.64632 -43.4036 -30.8797 5.68632 -43.7242 
-31.7968 5.88449 -44.0149 -31.3949 5.30363 -44.1395 -33.5625 5.80751 -44.0809 
-34.2492 5.29849 -43.7616 -35.0095 5.46905 -43.5637 -35.891 5.48808 -43.4369 
-32.1948 5.40924 -44.4426 -33.1593 5.27709 -44.4437 -31.0619 4.85607 -34.8687 
-31.2663 4.29489 -34.6786 -30.7652 4.43379 -34.9416 -32.1364 4.30485 -34.4305 
-33.0505 4.94473 -35.2967 -32.7505 4.69301 -34.627 -33.2923 4.25526 -34.9472 
-34.9783 5.02781 -35.255 -35.4968 4.49501 -35.0941 -36.096 4.49814 -34.5284 
-36.8956 4.74627 -35.0708 -36.936 4.48134 -34.4647 -37.3968 4.31472 -34.8626 
-30.9599 4.61987 -35.2317 -31.3889 4.5193 -35.8655 -33.0253 5.00134 -36.2792 
-33.4129 4.30813 -35.7041 -34.9345 4.80111 -36.061 -35.29 4.34342 -35.9134 
-36.6667 4.74092 -35.7672 -37.1062 4.41103 -35.3874 -31.4313 4.43585 -36.9022 
-32.9734 4.98035 -37.3018 -33.3918 4.32358 -36.7363 -35.0715 4.29807 -36.5922 
-34.6825 4.65177 -37.0809 -36.9334 5.19592 -36.8771 -36.6618 4.71363 -36.9653 
-30.1792 4.9095 -38.0179 -30.2152 4.30903 -37.7366 -29.8118 4.28479 -38.132 
-31.019 4.28065 -37.4228 -32.9554 4.96739 -38.3275 -33.3529 4.33773 -37.793 
-34.5526 4.455 -38.0652 -36.6463 4.29736 -38.1943 -28.2951 4.74836 -39.0759 
-28.2014 4.2443 -38.7337 -27.8245 4.46685 -38.9212 -29.092 4.84666 -39.0497 
-28.888 4.33743 -38.7386 -30.0725 4.59033 -38.3971 -30.1321 5.11539 -38.8422 
-29.5327 4.25236 -39.0506 -30.2476 4.4455 -38.8454 -33.0196 4.94791 -39.2954 
-33.3047 4.29683 -38.8806 -34.0464 4.96747 -39.1293 -34.3588 4.47588 -38.7742 
-36.8777 4.61005 -38.7631 -37.0476 5.06686 -39.1645 -37.2504 4.62525 -39.2625 
-27.9617 4.37842 -39.2006 -28.3076 4.51575 -40.0646 -29.8466 4.59726 -39.2127 
-33.1132 5.08682 -39.9945 -33.7365 4.46475 -39.4834 -37.5398 4.34555 -40.1423 
-28.4768 4.62689 -41.2555 -37.113 4.91534 -40.886 -36.7563 4.60494 -41.4251 
-37.1227 4.32882 -40.8158 -28.6256 4.20722 -41.9631 -36.5485 4.63874 -42.2672 
-28.984 4.6913 -42.5601 -29.5015 4.19916 -43.0753 -36.3183 4.52074 -42.9387 
-30.1483 4.72651 -43.5528 -30.8178 4.87169 -43.9959 -30.5369 4.14176 -44.0697 
-33.8244 5.03528 -44.1303 -34.2411 4.6127 -43.9652 -34.7199 4.40594 -43.6536 
-35.6558 4.4127 -43.3795 -31.311 4.50234 -44.418 -32.1472 4.34168 -44.6285 
-32.8189 4.5908 -44.6079 -33.6387 4.34115 -44.3427 -36.8101 3.82739 -34.1034 
-36.9859 3.46955 -33.8384 -36.7842 3.48075 -34.0237 -37.3331 3.4134 -34.1523 
-30.9692 4.16658 -35.1368 -31.4842 3.67972 -35.1875 -31.9922 3.50519 -34.6717 
-32.8471 3.66371 -34.5392 -33.5024 3.43746 -34.9672 -35.9196 3.9106 -35.1295 
-36.523 3.37404 -34.8024 -37.8404 3.89917 -35.286 -37.9605 3.52484 -34.5393 
[...]
CELL_DATA 27744
SCALARS scalars float
LOOKUP_TABLE default
1007 1007 1007 1007 1007 1007 1007 1007 1007 
1007 1007 1007 1007 1007 1007 1007 1007 1007 
1007 1007 1007 1007 1007 1007 1007 1007 1007 
1007 1007 1007 1007 1007 1007 1007 1007 1007 
1007 1007 1007 1007 1007 1007 1007 1007 1007 
1007 1007 1007 1007 1007 1007 1007 1007 1007 
1007 1007 1007 1007 1007 1007 1007 1007 1007 
1007 1007 1007 1007 1007 1007 1007 1007 1007 
1007 1007 1007 1007 1007 1007 1007 1007 1007 
1007 1007 1007 1007 1007 1007 1007 1007 1007 
1007 1007 1007 1007 1007 1007 1007 1007 1007 
1007 1007 1007 1007 1007 1007 1007 1007 1007 
1007 1007 1007 1007 1007 1007 1007 1007 1007 
1007 1007 1007 1007 1007 1007 1007 1007 1007 
1007 1007 1007 1007 1007 1007 1007 1007 1007 
1007 1007 1007 1007 1007 1007 1007 1007 1007 
1007 1007 1007 1007 1007 1007 1007 1007 1007 
1007 1007 1007 1007 1007 1007 1007 1007 1007 
1007 1007 1007 1007 1007 1007 1007 1007 1007 
1007 1007 1007 1007 1007 1007 1007 1007 1007 
1007 1007 1007 1007 1007 1007 1007 1007 1007 
1007 1007 1007 1007 1007 1007 1007 1007 1007 
1007 1007 1007 1007 1007 1007 1007 1007 1007 
1007 1007 1007 1007 1007 1007 1007 1007 1007 
1007 1007 1007 1007 1007 1007 1007 1007 1007 
1007 1007 1007 1007 1007 1007 1007 1007 1007 
1007 1007 1007 1007 1007 1007 1007 1007 1007 
1007 1007 1007 1007 1007 1007 1007 1007 1007 
1007 1007 1007 1007 1007 1007 1007 1007 1007 
1007 1007 1007 1007 1007 1007 1007 1007 1007 
1007 1007 1007 1007 1007 1007 1007 1007 1007 
1007 1007 1007 1007 1007 1007 1007 1007 1007 
1007 1007 1007 1007 1007 1007 1007 1007 1007 
1007 1007 1007 1007 1007 1007 1007 1007 1007 
1007 1007 1007 1007 1007 1007 1007 1007 1007 
1007 1007 1007 1007 1007 1007 1007 1007 1007 
1007 1007 1007 1007 1007 1007 1007 1007 1007 
1007 1007 1007 1007 1007 1007 1007 1007 1007 
1007 1007 1007 1007 1007 1007 1007 1007 1007 
1007 1007 1007 1007 1007 1007 1007 1007 1007 
1007 1007 1007 1007 1007 1007 1007 1007 1007 
1007 1007 1007 1007 1007 1007 1007 1007 1007 
1007 1007 1007 1007 1007 1007 1007 1007 1007 
1007 1007 1007 1007 1007 1007 1007 1007 1007 
1007 1007 1007 1007 1007 1007 1007 1007 1007 
1007 1007 1007 1007 1007 1007 1007 1007 1007 
1007 1007 1007 1007 1007 1007 1007 1007 1007 
1007 1007 1007 1007 1007 1007 1007 1007 1007 
1007 1007 1007 1007 1007 1007 1007 1007 1007 
1007 1007 1007 1007 1007 1007 1007 1007 1007 
1007 1007 1007 1007 1007 1007 1007 1007 1007 
1007 1007 1007 1007 1007 1007 1007 1007 1007 
1007 1007 1007 1007 1007 1007 1007 1007 1007 
1007 1007 1007 1007 1007 1007 1007 1007 1007 
1007 1007 1007 1007 1007 1007 1007 1007 1007 
1007 1007 1007 1007 1007 1007 1007 1007 1007 
1007 1007 1007 1007 1007 1007 1007 1007 1007 
1007 1007 1007 1007 1007 1007 1007 1007 1007 
1007 1007 1007 1007 1007 1007 1007 1007 1007 
1007 1007 1007 1007 1007 1007 1007 1007 1007 
1007 1007 1007 1007 1007 1007 1007 1007 1007 
1007 1007 1007 1007 1007 1007 1007 1007 1007 
1007 1007 1007 1007 1007 1007 1007 1007 1007 
1007 1007 1007 1007 1007 1007 1007 1007 1007 
1007 1007 1007 1007 1007 1007 1007 1007 1007 
1007 1007 1007 1007 1007 1007 1007 1007 1007 
1007 1007 1007 1007 1007 1007 1007 1007 1007 
1007 1007 1007 1007 1007 1007 1007 1007 1007 
1007 1007 1007 1007 1007 1007 1007 1007 1007 
1007 1007 1007 1007 1007 1007 1007 1007 1007 
1007 1007 1007 1007 1007 1007 1007 1007 1007 
1007 1007 1007 1007 1007 1007 1007 1007 1007 
1007 1007 1007 1007 1007 1007 1007 1007 1007 
1007 1007 1007 1007 1007 1007 1007 1007 1007 
1007 1007 1007 1007 1007 1007 1007 1007 1007 
1007 1007 1007 1007 1007 1007 1007 1007 1007 
1007 1007 1007 1007 1007 1007 1007 1007 1007 
1007 1007 1007 1007 1007 1007 1007 1007 1007 
1007 1007 1007 1007 1007 1007 1007 1007 1007 
1007 1007 1007 1007 1007 1007 1007 1007 1007 
1007 1007 1007 1007 1007 1007 1007 1007 1007 
1007 1007 1007 1007 1007 1007 1007 1007 1007 
1007 1007 1007 1007 1007 1007 1007 1007 1007 
1007 1007 1007 1007 1007 1007 1007 1007 1007 
1007 1007 1007 1007 1007 1007 1007 1007 1007 
1007 1007 1007 1007 1007 1007 1007 1007 1007 
1007 1007 1007 1007 1007 1007 1007 1007 1007 
1007 1007 1007 1007 1007 1007 1007 1007 1007 
1007 1007 1007 1007 1007 1007 1007 1007 1007 
1007 1007 1007 1007 1007 1007 1007 1007 1007 
1007 1007 1007 1007 1007 1007 1007 1007 1007 
1007 1007 1007 1007 1007 1007 1007 1007 1007 
1007 1007 1007 1007 1007 1007 1007 1007 1007 
1007 1007 1007 1007 1007 1007 1007 1007 1007 
1007 1007 1007 1007 1007 1007 1007 1007 1007 
1007 1007 1007 1007 1007 1007 1007 1007 1007 
1007 1007 1007 1007 1007 1007 1007 1007 1007 
1007 1007 1007 1007 1007 1007 1007 1007 1007 
1007 1007 1007 1007 1007 1007 1007 1007 1007 
1007 1007 1007 1007 1007 1007 1007 1007 1007 
1007 1007 1007 1007 1007 1007 1007 1007 1007 
1007 1007 1007 1007 1007 1007 1007 1007 1007 
1007 1007 1007 1007 1007 1007 1007 1007 1007 
1007 1007 1007 1007 1007 1007 1007 1007 1007 
1007 1007 1007 1007 1007 1007 1007 1007 1007 
1007 1007 1007 1007 1007 1007 1007 1007 1007 
1007 1007 1007 1007 1007 1007 1007 1007 1007 
1007 1007 1007 1007 1007 1007 1007 1007 1007 
1007 1007 1007 1007 1007 1007 1007 1007 1007 
1007 1007 1007 1007 1007 1007 1007 1007 1007 
1007 1007 1007 1007 1007 1007 1007 1007 1007 
1007 1007 1007 1007 1007 1007 1007 1007 1007 
1007 1007 1007 1007 1007 1007 1007 1007 1007 
1007 1007 1007 1007 1007 1007 1007 1007 1007 
1007 1007 1007 1007 1007 1007 1007 1007 1007 
1007 1007 1007 1007 1007 1007 1007 1007 1007 
1007 1007 1007 1007 1007 1007 1007 1007 1007 
1007 1007 1007 1007 1007 1007 1007 1007 1007 
1007 1007 1007 1007 1007 1007 1007 1007 1007 
1007 1007 1007 1007 1007 1007 1007 1007 1007 
1007 1007 1007 1007 1007 1007 1007 1007 1007 
1007 1007 1007 1007 1007 1007 1007 1007 1007 
1007 1007 1007 1007 1007 1007 1007 1007 1007 
1007 1007 1007 1007 1007 1007 1007 1007 1007 
1007 1007 1007 1007 1007 1007 1007 1007 1007 
1007 1007 1007 1007 1007 1007 1007 1007 1007 
1007 1007 1007 1007 1007 1007 1007 1007 1007 
1007 1007 1007 1007 1007 1007 1007 1007 1007 
1007 1007 1007 1007 1007 1007 1007 1007 1007 
1007 1007 1007 1007 1007 1007 1007 1007 1007 
1007 1007 1007 1007 1007 1007 1007 1007 1007 
1007 1007 1007 1007 1007 1007 1007 1007 1007 
1007 1007 1007 1007 1007 1007 1007 1007 1007 
1007 1007 1007 1007 1007 1007 1007 1007 1007 
1007 1007 1007 1007 1007 1007 1007 1007 1007 
1007 1007 1007 1007 1007 1007 1007 1007 1007 
1007 1007 1007 1007 1007 1007 1007 1007 1007 
1007 1007 1007 1007 1007 1007 1007 1007 1007 
1007 1007 1007 1007 1007 1007 1007 1007 1007 
1007 1007 1007 1007 1007 1007 1007 1007 1007 
1007 1007 1007 1007 1007 1007 1007 1007 1007 
1007 1007 1007 1007 1007 1007 1007 1007 1007 
1007 1007 1007 1007 1007 1007 1007 1007 1007 
1007 1007 1007 1007 1007 1007 1007 1007 1007 
1007 1007 1007 1007 1007 1007 1007 1007 1007 
1007 1007 1007 1007 1007 1007 1007 1007 1007 
1007 1007 1007 1007 1007 1007 1007 1007 1007 
1007 1007 1007 1007 1007 1007 1007 1007 1007 
1007 1007 1007 1007 1007 1007 1007 1007 1007 
1007 1007 1007 1007 1007 1007 1007 1007 1007 
1007 1007 1007 1007 1007 1007 1007 1007 1007 
1007 1007 1007 1007 1007 1007 1007 1007 1007 
1007 1007 1007 1007 1007 1007 1007 1007 1007 
1007 1007 1007 1007 1007 1007 1007 1007 1007 
1007 1007 1007 1007 1007 1007 1007 1007 1007 
1007 1007 1007 1007 1007 1007 1007 1007 1007 
1007 1007 1007 1007 1007 1007 1007 1007 1007 
1007 1007 1007 1007 1007 1007 1007 1007 1007 
1007 1007 1007 1007 1007 1007 1007 1007 1007 
1007 1007 1007 1007 1007 1007 1007 1007 1007 
1007 1007 1007 1007 1007 1007 1007 1007 1007 
1007 1007 1007 1007 1007 1007 1007 1007 1007 
1007 1007 1007 1007 1007 1007 1007 1007 1007 
1007 1007 1007 1007 1007 1007 1007 1007 1007 
1007 1007 1007 1007 1007 1007 1007 1007 1007 
1007 1007 1007 1007 1007 1007 1007 1007 1007 
1007 1007 1007 1007 1007 1007 1007 1007 1007 
1007 1007 1007 1007 1007 1007 1007 1007 1007 
1007 1007 1007 1007 1007 1007 1007 1007 1007 
1007 1007 1007 1007 1007 1007 1007 1007 1007 
1007 1007 1007 1007 1007 1007 1007 1007 1007 
1007 1007 1007 1007 1007 1007 1007 1007 1007 
1007 1007 1007 1007 1007 1007 1007 1007 1007 
1007 1007 1007 1007 1007 1007 1007 1007 1007 
1007 1007 1007 1007 1007 1007 1007 1007 1007 
1007 1007 1007 1007 1007 1007 1007 1007 1007 
1007 1007 1007 1007 1007 1007 1007 1007 1007 
1007 1007 1007 1007 1007 1007 1007 1007 1007 
1007 1007 1007 1007 1007 1007 1007 1007 1007 
1007 1007 1007 1007 1007 1007 1007 1007 1007 
1007 1007 1007 1007 1007 1007 1007 1007 1007 
1007 1007 1007 1007 1007 1007 1007 1007 1007 
1007 1007 1007 1007 1007 1007 1007 1007 1007 
1007 1007 1007 1007 1007 1007 1007 1007 1007 
1007 1007 1007 1007 1007 1007 1007 1007 1007 
1007 1007 1007 1007 1007 1007 1007 1007 1007 
1007 1007 1007 1007 1007 1007 1007 1007 1007 
1007 1007 1007 1007 1007 1007 1007 1007 1007 
1007 1007 1007 1007 1007 1007 1007 1007 1007 
1007 1007 1007 1007 1007 1007 1007 1007 1007 
1007 1007 1007 1007 1007 1007 1007 1007 1007 
1007 1007 1007 1007 1007 1007 1007 1007 1007 
1007 1007 1007 1007 1007 1007 1007 1007 1007 
1007 1007 1007 1007 1007 1007 1007 1007 1007 
1007 1007 1007 1007 1007 1007 1007 1007 1007 
1007 1007 1007 1007 1007 1007 1007 1007 1007 
1007 1007 1007 1007 1007 1007 1007 1007 1007 
1007 1007 1007 1007 1007 1007 1007 1007 1007 
1007 1007 1007 1007 1007 1007 1007 1007 1007 
1007 1007 1007 1007 1007 1007 1007 1007 1007 
1007 1007 1007 1007 1007 1007 1007 1007 1007 
1007 1007 1007 1007 1007 1007 1007 1007 1007 
1007 1007 1007 1007 1007 1007 1007 1007 1007 
1007 1007 1007 1007 1007 1007 1007 1007 1007 
1007 1007 1007 1007 1007 1007 1007 1007 1007 
1007 1007 1007 1007 1007 1007 1007 1007 1007 
1007 1007 1007 1007 1007 1007 1007 1007 1007 
1007 1007 1007 1007 1007 1007 1007 1007 1007 
1007 1007 1007 1007 1007 1007 1007 1007 1007 
1007 1007 1007 1007 1007 1007 1007 1007 1007 
1007 1007 1007 1007 1007 1007 1007 1007 1007 
1007 1007 1007 1007 1007 1007 1007 1007 1007 
1007 1007 1007 1007 1007 1007 1007 1007 1007 
1007 1007 1007 1007 1007 1007 1007 1007 1007 
1007 1007 1007 1007 1007 1007 1007 1007 1007 
1007 1007 1007 1007 1007 1007 1007 1007 1007 
1007 1007 1007 1007 1007 1007 1007 1007 1007 
1007 1007 1007 1007 1007 1007 1007 1007 1007 
1007 1007 1007 1007 1007 1007 1007 1007 1007 
1007 1007 1007 1007 1007 1007 1007 1007 1007 
1007 1007 1007 1007 1007 1007 1007 1007 1007 
1007 1007 1007 1007 1007 1007 1007 1007 1007 
1007 1007 1007 1007 1007 1007 1007 1007 1007 
1007 1007 1007 1007 1007 1007 1007 1007 1007 
1007 1007 1007 1007 1007 1007 1007 1007 1007 
1007 1007 1007 1007 1007 1007 1007 1007 1007 
1007 1007 1007 1007 1007 1007 1007 1007 1007 
1007 1007 1007 1007 1007 1007 1007 1007 1007 
1007 1007 1007 1007 1007 1007 1007 1007 1007 
1007 1007 1007 1007 1007 1007 1007 1007 1007 
1007 1007 1007 1007 1007 1007 1007 1007 1007 
1007 1007 1007 1007 1007 1007 1007 1007 1007 
1007 1007 1007 1007 1007 1007 1007 1007 1007 
1007 1007 1007 1007 1007 1007 1007 1007 1007 
1007 1007 1007 1007 1007 1007 1007 1007 1007 
1007 1007 1007 1007 1007 1007 1007 1007 1007 
1007 1007 1007 1007 1007 1007 1007 1007 1007 
1007 1007 1007 1007 1007 1007 1007 1007 1007 
1007 1007 1007 1007 1007 1007 1007 1007 1007 
1007 1007 1007 1007 1007 1007 1007 1007 1007 
1007 1007 1007 1007 1007 1007 1007 1007 1007 
1007 1007 1007 1007 1007 1007 1007 1007 1007 
1007 1007 1007 1007 1007 1007 1007 1007 1007 
1007 1007 1007 1007 1007 1007 1007 1007 1007 
1007 1007 1007 1007 1007 1007 1007 1007 1007 
1007 1007 1007 1007 1007 1007 1007 1007 1007 
1007 1007 1007 1007 1007 1007 1007 1007 1007 
1007 1007 1007 1007 1007 1007 1007 1007 1007 
1007 1007 1007 1007 1007 1007 1007 1007 1007 
1007 1007 1007 1007 1007 1007 1007 1007 1007 
1007 1007 1007 1007 1007 1007 1007 1007 1007 
1007 1007 1007 1007 1007 1007 1007 1007 1007 
1007 1007 1007 1007 1007 1007 1007 1007 1007 
1007 1007 1007 1007 1007 1007 1007 1007 1007 
1007 1007 1007 1007 1007 1007 1007 1007 1007 
1007 1007 1007 1007 1007 1007 1007 1007 1007 
1007 1007 1007 1007 1007 1007 1007 1007 1007 
1007 1007 1007 1007 1007 1007 1007 1007 1007 
1007 1007 1007 1007 1007 1007 1007 1007 1007 
1007 1007 1007 1007 1007 1007 1007 1007 1007 
1007 1007 1007 1007 1007 1007 1007 1007 1007 
1007 1007 1007 1007 1007 1007 1007 1007 1007 
1007 1007 1007 1007 1007 1007 1007 1007 1007 
1007 1007 1007 1007 1007 1007 1007 1007 1007 
1007 1007 1007 1007 1007 1007 1007 1007 1007 
1007 1007 1007 1007 1007 1007 1007 1007 1007 
1007 1007 1007 1007 1007 1007 1007 1007 1007 
1007 1007 1007 1007 1007 1007 1007 1007 1007 
1007 1007 1007 1007 1007 1007 1007 1007 1007 
1007 1007 1007 1007 1007 1007 1007 1007 1007 
1007 1007 1007 1007 1007 1007 1007 1007 1007 
1007 1007 1007 1007 1007 1007 1007 1007 1007 
1007 1007 1007 1007 1007 1007 1007 1007 1007 
1007 1007 1007 1007 1007 1007 1007 1007 1007 
1007 1007 1007 1007 1007 1007 1007 1007 1007 
1007 1007 1007 1007 1007 1007 1007 1007 1007 
1007 1007 1007 1007 1007 1007 1007 1007 1007 
1007 1007 1007 1007 1007 1007 1007 1007 1007 
1007 1007 1007 1007 1007 1007 1007 1007 1007 
1007 1007 1007 1007 1007 1007 1007 1007 1007 
1007 1007 1007 1007 1007 1007 1007 1007 1007 
1007 1007 1007 1007 1007 1007 1007 1007 1007 
1007 1007 1007 1007 1007 1007 1007 1007 1007 
1007 1007 1007 1007 1007 1007 1007 1007 1007 
1007 1007 1007 1007 1007 1007 1007 1007 1007 
1007 1007 1007 1007 1007 1007 1007 1007 1007 
1007 1007 1007 1007 1007 1007 1007 1007 1007 
1007 1007 1007 1007 1007 1007 1007 1007 1007 
1007 1007 1007 1007 1007 1007 1007 1007 1007 
1007 1007 1007 1007 1007 1007 1007 1007 1007 
1007 1007 1007 1007 1007 1007 1007 1007 1007 
1007 1007 1007 1007 1007 1007 1007 1007 1007 
1007 1007 1007 1007 1007 1007 1007 1007 1007 
1007 1007 1007 1007 1007 1007 1007 1007 1007 
1007 1007 1007 1007 1007 1007 1007 1007 1007 
1007 1007 1007 1007 1007 1007 1007 1007 1007 
1007 1007 1007 1007 1007 1007 1007 1007 1007 
1007 1007 1007 1007 1007 1007 1007 1007 1007 
1007 1007 1007 1007 1007 1007 1007 1007 1007 
1007 1007 1007 1007 1007 1007 1007 1007 1007 
1007 1007 1007 1007 1007 1007 1007 1007 1007 
1007 1007 1007 1007 1007 1007 1007 1007 1007 
1007 1007 1007 1007 1007 1007 1007 1007 1007 
1007 1007 1007 1007 1007 1007 1007 1007 1007 
1007 1007 1007 1007 1007 1007 1007 1007 1007 
1007 1007 1007 1007 1007 1007 1007 1007 1007 
1007 1007 1007 1007 1007 1007 1007 1007 1007 
1007 1007 1007 1007 1007 1007 1007 1007 1007 
1007 1007 1007 1007 1007 1007 1007 1007 1007 
1007 1007 1007 1007 1007 1007 1007 1007 1007 
1007 1007 1007 1007 1007 1007 1007 1007 1007 
1007 1007 1007 1007 1007 1007 1007 1007 1007 
1007 1007 1007 1007 1007 1007 1007 1007 1007 
1007 1007 1007 1007 1007 1007 1007 1007 1007 
1007 1007 1007 1007 1007 1007 1007 1007 1007 
1007 1007 1007 1007 1007 1007 1007 1007 1007 
1007 1007 1007 1007 1007 1007 1007 1007 1007 
1007 1007 1007 1007 1007 1007 1007 1007 1007 
1007 1007 1007 1007 1007 1007 1007 1007 1007 
1007 1007 1007 1007 1007 1007 1007 1007 1007 
1007 1007 1007 1007 1007 1007 1007 1007 1007 
1007 1007 1007 1007 1007 1007 1007 1007 1007 
1007 1007 1007 1007 1007 1007 1007 1007 1007 
1007 1007 1007 1007 1007 1007 1007 1007 1007 
1007 1007 1007 1007 1007 1007 1007 1007 1007 
1007 1007 1007 1007 1007 1007 1007 1007 1007 
1007 1007 1007 1007 1007 1007 1007 1007 1007 
1007 1007 1007 1007 1007 1007 1007 1007 1007 
1007 1007 1007 1007 1007 1007 1007 1007 1007 
1007 1007 1007 1007 1007 1007 1007 1007 1007 
1007 1007 1007 1007 1007 1007 1007 1007 1007 
1007 1007 1007 1007 1007 1007 1007 1007 1007 
1007 1007 1007 1007 1007 1007 1007 1007 1007 
1007 1007 1007 1007 1007 1007 1007 1007 1007 
1007 1007 1007 1007 1007 1007 1007 1007 1007 
1007 1007 1007 1007 1007 1007 1007 1007 1007 
1007 1007 1007 1007 1007 1007 1007 1007 1007 
1007 1007 1007 1007 1007 1007 1007 1007 1007 
1007 1007 1007 1007 1007 1007 1007 1007 1007 
1007 1007 1007 1007 1007 1007 1007 1007 1007 
1007 1007 1007 1007 1007 1007 1007 1007 1007 
1007 1007 1007 1007 1007 1007 1007 1007 1007 
1007 1007 1007 1007 1007 1007 1007 1007 1007 
1007 1007 1007 1007 1007 1007 1007 1007 1007 
1007 1007 1007 1007 1007 1007 1007 1007 1007 
1007 1007 1007 1007 1007 1007 1007 1007 1007 
1007 1007 1007 1007 1007 1007 1007 1007 1007 
1007 1007 1007 1007 1007 1007 1007 1007 1007 
1007 1007 1007 1007 1007 1007 1007 1007 1007 
1007 1007 1007 1007 1007 1007 1007 1007 1007 
1007 1007 1007 1007 1007 1007 1007 1007 1007 
1007 1007 1007 1007 1007 1007 1007 1007 1007 
1007 1007 1007 1007 1007 1007 1007 1007 1007 
1007 1007 1007 1007 1007 1007 1007 1007 1007 
1007 1007 1007 1007 1007 1007 1007 1007 1007 
1007 1007 1007 1007 1007 1007 1007 1007 1007 
1007 1007 1007 1007 1007 1007 1007 1007 1007 
1007 1007 1007 1007 1007 1007 1007 1007 1007 
1007 1007 1007 1007 1007 1007 1007 1007 1007 
1007 1007 1007 1007 1007 1007 1007 1007 1007 
1007 1007 1007 1007 1007 1007 1007 1007 1007 
1007 1007 1007 1007 1007 1007 1007 1007 1007 
1007 1007 1007 1007 1007 1007 1007 1007 1007 
1007 1007 1007 1007 1007 1007 1007 1007 1007 
1007 1007 1007 1007 1007 1007 1007 1007 1007 
1007 1007 1007 1007 1007 1007 1007 1007 1007 
1007 1007 1007 1007 1007 1007 1007 1007 1007 
1007 1007 1007 1007 1007 1007 1007 1007 1007 
1007 1007 1007 1007 1007 1007 1007 1007 1007 
1007 1007 1007 1007 1007 1007 1007 1007 1007 
1007 1007 1007 1007 1007 1007 1007 1007 1007 
1007 1007 1007 1007 1007 1007 1007 1007 1007 
1007 1007 1007 1007 1007 1007 1007 1007 1007 
1007 1007 1007 1007 1007 1007 1007 1007 1007 
1007 1007 1007 1007 1007 1007 1007 1007 1007 
1007 1007 1007 1007 1007 1007 1007 1007 1007 
1007 1007 1007 1007 1007 1007 1007 1007 1007 
1007 1007 1007 1007 1007 1007 1007 1007 1007 
1007 1007 1007 1007 1007 1007 1007 1007 1007 
1007 1007 1007 1007 1007 1007 1007 1007 1007 
1007 1007 1007 1007 1007 1007 1007 1007 1007 
1007 1007 1007 1007 1007 1007 1007 1007 1007 
1007 1007 1007 1007 1007 1007 1007 1007 1007 
1007 1007 1007 1007 1007 1007 1007 1007 1007 
1007 1007 1007 1007 1007 1007 1007 1007 1007 
1007 1007 1007 1007 1007 1007 1007 1007 1007 
1007 1007 1007 1007 1007 1007 1007 1007 1007 
1007 1007 1007 1007 1007 1007 1007 1007 1007 
1007 1007 1007 1007 1007 1007 1007 1007 1007 
1007 1007 1007 1007 1007 1007 1007 1007 1007 
1007 1007 1007 1007 1007 1007 1007 1007 1007 
1007 1007 1007 1007 1007 1007 1007 1007 1007 
1007 1007 1007 1007 1007 1007 1007 1007 1007 
1007 1007 1007 1007 1007 1007 1007 1007 1007 
1007 1007 1007 1007 1007 1007 1007 1007 1007 
1007 1007 1007 1007 1007 1007 1007 1007 1007 
1007 1007 1007 1007 1007 1007 1007 1007 1007 
1007 1007 1007 1007 1007 1007 1007 1007 1007 
1007 1007 1007 1007 1007 1007 1007 1007 1007 
1007 1007 1007 1007 1007 1007 1007 1007 1007 
1007 1007 1007 1007 1007 1007 1007 1007 1007 
1007 1007 1007 1007 1007 1007 1007 1007 1007 
1007 1007 1007 1007 1007 1007 1007 1007 1007 
1007 1007 1007 1007 1007 1007 1007 1007 1007 
1007 1007 1007 1007 1007 1007 1007 1007 1007 
1007 1007 1007 1007 1007 1007 1007 1007 1007 
1007 1007 1007 1007 1007 1007 1007 1007 1007 
1007 1007 1007 1007 1007 1007 1007 1007 1007 
1007 1007 1007 1007 1007 1007 1007 1007 1007 
1007 1007 1007 1007 1007 1007 1007 1007 1007 
1007 1007 1007 1007 1007 1007 1007 1007 1007 
1007 1007 1007 1007 1007 1007 1007 1007 1007 
1007 1007 1007 1007 1007 1007 1007 1007 1007 
1007 1007 1007 1007 1007 1007 1007 1007 1007 
1007 1007 1007 1007 1007 1007 1007 1007 1007 
1007 1007 1007 1007 1007 1007 1007 1007 1007 
1007 1007 1007 1007 1007 1007 1007 1007 1007 
1007 1007 1007 1007 1007 1007 1007 1007 1007 
1007 1007 1007 1007 1007 1007 1007 1007 1007 
1007 1007 1007 1007 1007 1007 1007 1007 1007 
1007 1007 1007 1007 1007 1007 1007 1007 1007 
1007 1007 1007 1007 1007 1007 1007 1007 1007 
1007 1007 1007 1007 1007 1007 1007 1007 1007 
1007 1007 1007 1007 1007 1007 1007 1007 1007 
1007 1007 1007 1007 1007 1007 1007 1007 1007 
1007 1007 1007 1007 1007 1007 1007 1007 1007 
1007 1007 1007 1007 1007 1007 1007 1007 1007 
1007 1007 1007 1007 1007 1007 1007 1007 1007 
1007 1007 1007 1007 1007 1007 1007 1007 1007 
1007 1007 1007 1007 1007 1007 1007 1007 1007 
1007 1007 1007 1007 1007 1007 1007 1007 1007 
1007 1007 1007 1007 1007 1007 1007 1007 1007 
1007 1007 1007 1007 1007 1007 1007 1007 1007 