# vtk DataFile Version 4.0
vtk output
ASCII
DATASET POLYDATA
POINTS 7784 float
32.9593 26.721 0.973433 32.9517 26.6473 1.24035 33.312 26.4113 1.01735 
32.7123 26.3348 1.23088 35.9954 26.7048 -0.0429538 36.1304 26.5535 0.241963 
36.2751 26.6341 -0.00513032 35.7085 26.2124 0.0920267 33.039 26.2573 0.717625 
36.1438 26.303 -0.396949 33.0605 26.0808 1.64579 33.1085 25.4751 2.24665 
33.5902 25.5847 1.85556 32.5561 25.4436 1.95352 36.7967 25.801 1.02621 
37.1018 25.1883 1.39474 37.5108 25.5061 0.749786 36.1253 26.0752 0.743595 
36.2444 25.535 1.28077 35.5294 25.4766 0.986404 33.7931 25.8252 1.2345 
34.1649 25.3985 1.4354 34.294 25.4021 0.805112 32.6461 25.508 0.956551 
36.7519 26.11 0.254546 37.4193 25.4932 -0.0389192 35.2673 25.5274 0.138069 
33.6721 25.7166 0.526278 33.0801 25.6926 0.450912 32.3633 25.4464 -0.107732 
31.9704 25.7328 -0.0399328 32.1232 25.4686 0.140512 31.773 25.3647 0.0479366 
36.7714 25.7596 -0.606731 36.0954 25.8345 -1.22593 36.4254 25.4598 -1.38697 
35.5326 25.5715 -0.872283 32.0175 25.2561 -0.244205 36.0891 25.6675 -1.87302 
36.1432 25.3589 -1.98463 35.8462 25.4761 -1.84426 36.0042 25.5108 -2.19673 
30.9485 24.7854 4.6661 31.1607 24.2435 5.25412 31.4892 24.6415 4.86747 
30.6325 24.2735 5.01045 34.6932 24.8192 3.90635 34.8606 24.3751 4.21357 
35.2222 24.4558 3.66441 33.7506 24.9164 3.87347 34.2207 24.4936 4.40185 
32.6854 24.9272 3.86623 33.2596 24.5529 4.48586 31.7066 24.9481 4.15929 
32.2616 24.5762 4.59036 31.1506 24.8799 3.76523 30.6559 24.4835 4.29822 
34.9015 24.8604 3.04915 35.3461 24.4782 2.83122 34.1719 25.0344 3.23324 
33.0069 25.0908 2.91275 31.9744 24.9337 3.28355 31.4283 24.4255 3.16163 
30.9566 24.3896 3.65208 35.1581 24.8665 1.96382 35.5581 24.3403 2.24328 
34.0801 25.1556 2.22467 32.2166 24.4088 2.50218 32.5295 24.6678 1.63418 
37.9128 25.0233 1.06505 37.6774 24.478 1.38464 38.2405 24.6294 0.857185 
36.975 24.6372 1.65788 36.0937 24.7497 1.67782 34.7592 25.1803 0.909802 
32.6133 24.5376 0.848572 37.9788 25.0344 0.163803 38.5516 24.4179 -0.0389129 
34.9719 25.1731 -0.228265 34.3085 24.9763 -0.0661308 32.9558 25.0982 0.185194 
32.0034 24.503 0.388146 31.485 24.4778 -0.17481 37.9264 24.8961 -1.0119 
38.5532 24.5614 -1.32344 37.166 25.152 -0.924941 34.9585 24.8517 -1.15669 
34.4616 24.4158 -0.968816 33.7836 24.1888 -0.492156 32.6874 24.5778 -0.386623 
32.0457 24.5726 -0.430355 38.0237 24.7804 -1.85747 38.5301 24.3848 -2.09257 
37.1985 24.7694 -1.85372 35.858 24.669 -1.76145 36.529 24.4896 -2.0717 
35.9751 25.2425 -2.1218 35.2534 24.4583 -2.13913 35.1175 24.6247 -1.98195 
34.772 24.3725 -1.73727 37.9415 24.3713 -2.36535 37.1118 24.2858 -2.39654 
35.7619 24.3887 -2.75868 36.3559 24.3525 -2.95587 35.9917 24.6944 -3.02901 
34.9946 24.4286 -2.20272 35.7043 24.6009 -3.05133 35.8794 24.2338 -3.30269 
34.7526 23.7837 5.77835 35.0594 23.5501 6.1629 35.2547 23.4577 5.72365 
34.7839 23.3829 5.98923 34.9162 23.7577 5.0945 35.2752 23.2347 5.01295 
34.2259 23.3927 5.57998 33.9664 24.0042 5.02343 32.7339 24.043 5.01062 
33.282 23.3548 5.47546 31.8641 24.1983 5.11214 31.9907 23.5032 5.4562 
30.9836 23.5538 5.24699 30.6621 23.7415 4.75767 35.0765 23.9247 3.84784 
35.0246 23.3799 4.61744 34.6948 23.6327 4.31483 30.9669 23.3103 4.52188 
30.8114 23.9178 4.10631 31.2314 23.5598 3.79004 35.1275 23.1163 3.53079 
35.5301 23.8202 2.98106 31.656 23.5923 3.03104 36.8792 23.9781 1.85445 
37.2319 23.2483 2.28951 37.5058 23.4563 1.77435 35.974 24.014 2.17466 
36.3452 23.3343 2.53484 32.8075 24.0267 1.95237 33.2941 23.5314 1.73295 
32.8583 23.4651 2.23316 32.2275 23.2956 2.63703 38.242 24.0211 0.83535 
37.6036 23.3782 0.88958 33.0088 23.9332 1.31436 33.5912 23.2639 1.14338 
38.9022 23.4902 0.371579 39.5553 23.3592 -0.256988 39.1966 23.947 -0.213289 
38.3195 23.2323 0.500104 32.8005 23.4176 0.667483 31.7407 23.3512 0.54007 
30.788 23.8771 -0.213491 31.1276 23.7219 0.310066 30.5852 23.2963 0.0247375 
39.7235 23.7706 -0.890001 40.0059 23.3506 -0.772862 40.1521 23.4819 -1.03209 
39.0798 24.2156 -0.845156 34.4786 23.7153 -1.17671 33.8037 23.3637 -0.726526 
33.0009 23.552 -0.609671 31.9779 23.8491 -0.640761 31.0758 23.8144 -0.75263 
31.5179 23.3228 -1.07353 30.539 23.3639 -0.642587 39.8875 23.4389 -1.38039 
39.4876 23.3193 -2.06174 39.2125 23.9682 -1.71516 36.1554 24.1409 -2.32404 
35.3971 23.5829 -1.94361 34.9934 23.4597 -1.58666 35.053 24.0872 -1.88407 
32.9927 23.6267 -2.03529 33.15 23.4138 -1.73466 33.2438 23.4574 -2.18729 
32.6573 23.1563 -1.93067 30.9337 23.1638 -1.21905 38.6792 23.703 -2.54865 
37.8055 23.7589 -2.77133 37.0213 23.9462 -2.844 37.4399 23.4431 -3.23612 
35.2754 24.0409 -3.02265 35.2452 23.6645 -2.45894 34.7419 23.3693 -2.85314 
32.9295 23.3559 -2.42216 36.6738 23.6795 -3.4753 35.7644 23.3197 -3.67422 
34.9197 23.3613 -3.37406 31.775 22.8481 6.7812 31.8831 22.548 7.44027 
32.4759 22.5347 7.02773 30.9416 22.7764 6.72228 31.2428 22.4145 7.26391 
30.7071 22.4557 6.72875 35.1326 23.1271 5.92998 32.6653 22.9596 6.14778 
32.9994 22.5284 6.48487 33.3792 22.58 6.01894 31.8778 23.0076 5.92319 
31.2008 22.8027 6.04588 30.7333 22.5724 6.21237 34.8755 22.5773 5.53233 
35.3183 22.7046 5.28005 34.1238 22.4535 5.61362 31.3407 22.725 5.09047 
30.9168 23.1687 4.98117 31.0085 22.3284 5.72341 35.1388 22.582 4.40896 
34.7917 22.6555 3.89007 31.6368 22.6268 3.86101 35.7996 23.0522 3.01563 
35.6758 22.5672 3.34702 36.3356 22.553 3.01936 35.1565 22.3915 3.64779 
31.9075 22.9173 3.08719 32.343 22.4296 3.02143 32.0314 22.3468 3.51353 
37.8665 23.0363 2.00791 37.9212 22.4612 2.30067 38.3287 22.526 1.80658 
37.1557 22.4419 2.66575 33.5769 22.8152 1.77943 32.9092 22.4078 2.48511 
38.0257 22.932 1.36972 38.4828 22.3098 1.25457 34.0672 22.7794 1.13312 
34.299 22.2863 0.881682 34.1207 22.1716 1.41029 38.9616 22.5315 0.517881 
39.4142 22.5101 0.17167 37.8664 22.4618 0.567918 37.8158 22.9577 0.0901975 
38.3628 22.5372 0.131875 37.1563 22.7389 -0.0562916 37.0693 22.6103 0.21131 
36.7901 22.4205 -0.150092 33.8285 22.7027 0.677426 33.0398 22.3612 0.341954 
31.9507 22.581 0.395441 31.022 22.8135 0.347148 30.5208 22.4356 -0.311995 
40.1073 23.2307 -1.04421 39.8234 22.7688 -0.9728 37.6796 22.5255 -0.289492 
37.1421 22.3435 -0.320593 34.19 23.0738 -1.24855 33.0835 23.074 -1.15721 
32.2341 23.1336 -0.926018 30.4791 22.4827 -1.13552 40.0972 22.34 -1.42674 
40.313 22.3644 -2.08331 39.8439 22.8725 -2.12911 34.6485 23.1009 -2.08147 
33.7203 23.0767 -1.95126 31.8181 22.7103 -1.55548 32.2432 22.5947 -2.10201 
30.8954 22.3965 -1.59161 39.8725 22.8298 -3.00051 40.4061 22.3556 -2.95029 
39.08 23.1203 -3.04427 38.0912 23.2202 -3.25644 34.1693 22.9981 -2.87862 
33.3177 22.9449 -2.84598 32.5483 22.6426 -2.68411 39.9052 22.6239 -3.65706 
39.5197 22.3477 -4.29659 39.2171 22.823 -3.84459 38.2935 22.863 -3.92808 
37.2936 22.9766 -3.9013 36.298 22.9307 -4.03717 35.5636 22.6558 -3.98096 
34.8929 22.6344 -3.77476 33.8614 22.5932 -3.55709 32.897 22.4126 -3.377 
38.745 22.4714 -4.33679 37.9063 22.2835 -4.28836 36.8033 22.3407 -4.44507 
35.8998 22.4016 -4.36688 38.034 22.7324 -6.00643 37.9995 22.621 -5.7526 
38.3427 22.4174 -5.98913 37.7213 22.3209 -5.83311 38.0675 22.2549 -6.25549 
32.6074 21.8136 9.05455 32.9953 21.3571 9.36388 33.1724 21.4594 9.11312 
31.9242 21.8359 8.83954 32.2873 21.5137 9.32078 31.6727 21.3172 8.80629 
33.0357 21.4219 8.52222 32.7544 21.5817 7.83691 32.1056 22.0007 7.95255 
31.5581 21.5399 8.21103 33.0052 22.0093 6.953 33.1611 21.4202 7.38587 
33.5672 21.5518 6.80039 31.2939 21.5577 7.17318 30.8848 22.1143 6.88852 
33.7925 21.9484 6.1743 34.0752 21.3324 6.51402 34.3846 21.4368 5.96924 
30.8719 22.0657 6.30072 31.2955 21.5129 5.9144 35.0392 21.3556 5.44376 
35.5218 21.8098 4.85359 31.6023 21.5353 4.91107 35.8478 21.9936 3.84023 
36.1345 21.3082 4.53678 36.562 21.3318 3.98205 35.0537 22.2155 3.90413 
31.9245 21.9001 4.10304 32.294 21.7023 3.70406 31.9945 21.1637 4.42054 
36.8103 21.9348 3.22142 37.0548 21.2106 3.41704 37.3738 21.6293 2.92008 
32.7023 21.5716 3.13305 37.9497 21.4419 2.52642 38.5827 21.7633 1.84499 
33.5563 21.6419 2.10942 33.0899 21.403 2.69779 38.7496 21.9903 0.824588 
39.079 21.1322 1.46161 39.3467 21.6443 0.758033 34.3733 21.4439 0.816576 
34.092 21.2296 1.52958 39.7186 21.589 0.0138367 37.8711 22.2132 -0.0371532 
37.1412 22.2629 -0.0584624 33.9223 21.8503 0.38642 33.1498 21.7861 0.0306727 
33.5784 21.4775 -0.0311811 32.236 21.9192 -0.00830842 31.2005 22.051 0.0194816 
39.9855 21.8934 -0.797296 40.069 21.2822 -0.360522 40.3416 21.5435 -1.09794 
32.9553 21.3072 -0.443194 31.659 21.4635 -0.493719 30.8446 21.6107 -0.498419 
30.5344 21.4076 -1.12217 40.7047 21.6375 -2.03431 31.9618 22.2237 -2.28943 
31.2886 21.892 -2.20417 30.5441 21.4691 -1.95716 40.8557 21.9028 -3.04373 
41.0454 21.5247 -2.47861 41.4242 21.4653 -3.14656 32.0248 21.976 -3.19586 
31.3024 21.5413 -2.92408 30.9294 21.4527 -2.4882 40.907 21.9063 -4.04957 
41.5705 21.5425 -4.29812 40.3017 22.2356 -3.86814 38.1042 21.6545 -4.02408 
38.2811 21.375 -3.94008 37.9945 21.3842 -3.84102 37.6603 21.7188 -4.28056 
35.1934 22.1721 -4.29167 34.1295 21.9777 -4.26224 32.8724 22.0949 -4.05457 
31.9981 21.8521 -4.2286 31.4308 21.5206 -3.79734 40.9315 21.886 -5.08756 
41.5421 21.5496 -5.31837 39.8866 21.8998 -4.99033 38.8264 21.6923 -4.48563 
39.3045 21.4429 -5.06672 37.8998 21.9731 -5.23127 37.9889 21.4439 -4.51137 
38.5155 21.4106 -4.99676 37.0367 21.9174 -4.85964 36.0678 21.9447 -4.88644 
35.0684 21.7205 -4.84543 34.4293 21.5058 -4.80789 33.8572 21.5345 -4.71505 
33.3981 21.4048 -5.13264 33.177 21.7868 -4.72635 32.305 21.8153 -4.9085 
31.4703 21.3363 -5.00169 41.0536 21.7799 -5.83132 41.396 21.5388 -5.96668 
40.2897 21.8641 -5.93223 39.1838 21.4792 -5.31376 39.1008 21.8569 -5.81869 
36.9057 21.6361 -5.56184 37.4528 21.454 -6.23338 35.7449 21.4318 -5.4804 
34.9176 21.34 -5.29507 32.6519 21.5004 -5.44161 31.9596 21.3975 -5.59223 
42.0578 21.6699 -7.01888 42.134 21.442 -6.64477 42.2698 21.219 -6.97871 
40.8574 21.4684 -6.45785 41.8037 21.5154 -6.89136 39.7583 21.5248 -6.58726 
38.715 21.7366 -6.546 38.0072 21.4635 -6.60792 34.9312 21.6869 -7.20177 
[...]
CELL_DATA 15576
SCALARS scalars float
LOOKUP_TABLE default
2035 2035 2035 2035 2035 2035 2035 2035 2035 
2035 2035 2035 2035 2035 2035 2035 2035 2035 
2035 2035 2035 2035 2035 2035 2035 2035 2035 
2035 2035 2035 2035 2035 2035 2035 2035 2035 
2035 2035 2035 2035 2035 2035 2035 2035 2035 
2035 2035 2035 2035 2035 2035 2035 2035 2035 
2035 2035 2035 2035 2035 2035 2035 2035 2035 
2035 2035 2035 2035 2035 2035 2035 2035 2035 
2035 2035 2035 2035 2035 2035 2035 2035 2035 
2035 2035 2035 2035 2035 2035 2035 2035 2035 
2035 2035 2035 2035 2035 2035 2035 2035 2035 
2035 2035 2035 2035 2035 2035 2035 2035 2035 
2035 2035 2035 2035 2035 2035 2035 2035 2035 
2035 2035 2035 2035 2035 2035 2035 2035 2035 
2035 2035 2035 2035 2035 2035 2035 2035 2035 
2035 2035 2035 2035 2035 2035 2035 2035 2035 
2035 2035 2035 2035 2035 2035 2035 2035 2035 
2035 2035 2035 2035 2035 2035 2035 2035 2035 
2035 2035 2035 2035 2035 2035 2035 2035 2035 
2035 2035 2035 2035 2035 2035 2035 2035 2035 
2035 2035 2035 2035 2035 2035 2035 2035 2035 
2035 2035 2035 2035 2035 2035 2035 2035 2035 
2035 2035 2035 2035 2035 2035 2035 2035 2035 
2035 2035 2035 2035 2035 2035 2035 2035 2035 
2035 2035 2035 2035 2035 2035 2035 2035 2035 
2035 2035 2035 2035 2035 2035 2035 2035 2035 
2035 2035 2035 2035 2035 2035 2035 2035 2035 
2035 2035 2035 2035 2035 2035 2035 2035 2035 
2035 2035 2035 2035 2035 2035 2035 2035 2035 
2035 2035 2035 2035 2035 2035 2035 2035 2035 
2035 2035 2035 2035 2035 2035 2035 2035 2035 
2035 2035 2035 2035 2035 2035 2035 2035 2035 
2035 2035 2035 2035 2035 2035 2035 2035 2035 
2035 2035 2035 2035 2035 2035 2035 2035 2035 
2035 2035 2035 2035 2035 2035 2035 2035 2035 
2035 2035 2035 2035 2035 2035 2035 2035 2035 
2035 2035 2035 2035 2035 2035 2035 2035 2035 
2035 2035 2035 2035 2035 2035 2035 2035 2035 
2035 2035 2035 2035 2035 2035 2035 2035 2035 
2035 2035 2035 2035 2035 2035 2035 2035 2035 
2035 2035 2035 2035 2035 2035 2035 2035 2035 
2035 2035 2035 2035 2035 2035 2035 2035 2035 
2035 2035 2035 2035 2035 2035 2035 2035 2035 
2035 2035 2035 2035 2035 2035 2035 2035 2035 
2035 2035 2035 2035 2035 2035 2035 2035 2035 
2035 2035 2035 2035 2035 2035 2035 2035 2035 
2035 2035 2035 2035 2035 2035 2035 2035 2035 
2035 2035 2035 2035 2035 2035 2035 2035 2035 
2035 2035 2035 2035 2035 2035 2035 2035 2035 
2035 2035 2035 2035 2035 2035 2035 2035 2035 
2035 2035 2035 2035 2035 2035 2035 2035 2035 
2035 2035 2035 2035 2035 2035 2035 2035 2035 
2035 2035 2035 2035 2035 2035 2035 2035 2035 
2035 2035 2035 2035 2035 2035 2035 2035 2035 
2035 2035 2035 2035 2035 2035 2035 2035 2035 
2035 2035 2035 2035 2035 2035 2035 2035 2035 
2035 2035 2035 2035 2035 2035 2035 2035 2035 
2035 2035 2035 2035 2035 2035 2035 2035 2035 
2035 2035 2035 2035 2035 2035 2035 2035 2035 
2035 2035 2035 2035 2035 2035 2035 2035 2035 
2035 2035 2035 2035 2035 2035 2035 2035 2035 
2035 2035 2035 2035 2035 2035 2035 2035 2035 
2035 2035 2035 2035 2035 2035 2035 2035 2035 
2035 2035 2035 2035 2035 2035 2035 2035 2035 
2035 2035 2035 2035 2035 2035 2035 2035 2035 
2035 2035 2035 2035 2035 2035 2035 2035 2035 
2035 2035 2035 2035 2035 2035 2035 2035 2035 
2035 2035 2035 2035 2035 2035 2035 2035 2035 
2035 2035 2035 2035 2035 2035 2035 2035 2035 
2035 2035 2035 2035 2035 2035 2035 2035 2035 
2035 2035 2035 2035 2035 2035 2035 2035 2035 
2035 2035 2035 2035 2035 2035 2035 2035 2035 
2035 2035 2035 2035 2035 2035 2035 2035 2035 
2035 2035 2035 2035 2035 2035 2035 2035 2035 
2035 2035 2035 2035 2035 2035 2035 2035 2035 
2035 2035 2035 2035 2035 2035 2035 2035 2035 
2035 2035 2035 2035 2035 2035 2035 2035 2035 
2035 2035 2035 2035 2035 2035 2035 2035 2035 
2035 2035 2035 2035 2035 2035 2035 2035 2035 
2035 2035 2035 2035 2035 2035 2035 2035 2035 
2035 2035 2035 2035 2035 2035 2035 2035 2035 
2035 2035 2035 2035 2035 2035 2035 2035 2035 
2035 2035 2035 2035 2035 2035 2035 2035 2035 
2035 2035 2035 2035 2035 2035 2035 2035 2035 
2035 2035 2035 2035 2035 2035 2035 2035 2035 
2035 2035 2035 2035 2035 2035 2035 2035 2035 
2035 2035 2035 2035 2035 2035 2035 2035 2035 
2035 2035 2035 2035 2035 2035 2035 2035 2035 
2035 2035 2035 2035 2035 2035 2035 2035 2035 
2035 2035 2035 2035 2035 2035 2035 2035 2035 
2035 2035 2035 2035 2035 2035 2035 2035 2035 
2035 2035 2035 2035 2035 2035 2035 2035 2035 
2035 2035 2035 2035 2035 2035 2035 2035 2035 
2035 2035 2035 2035 2035 2035 2035 2035 2035 
2035 2035 2035 2035 2035 2035 2035 2035 2035 
2035 2035 2035 2035 2035 2035 2035 2035 2035 
2035 2035 2035 2035 2035 2035 2035 2035 2035 
2035 2035 2035 2035 2035 2035 2035 2035 2035 
2035 2035 2035 2035 2035 2035 2035 2035 2035 
2035 2035 2035 2035 2035 2035 2035 2035 2035 
2035 2035 2035 2035 2035 2035 2035 2035 2035 
2035 2035 2035 2035 2035 2035 2035 2035 2035 
2035 2035 2035 2035 2035 2035 2035 2035 2035 
2035 2035 2035 2035 2035 2035 2035 2035 2035 
2035 2035 2035 2035 2035 2035 2035 2035 2035 
2035 2035 2035 2035 2035 2035 2035 2035 2035 
2035 2035 2035 2035 2035 2035 2035 2035 2035 
2035 2035 2035 2035 2035 2035 2035 2035 2035 
2035 2035 2035 2035 2035 2035 2035 2035 2035 
2035 2035 2035 2035 2035 2035 2035 2035 2035 
2035 2035 2035 2035 2035 2035 2035 2035 2035 
2035 2035 2035 2035 2035 2035 2035 2035 2035 
2035 2035 2035 2035 2035 2035 2035 2035 2035 
2035 2035 2035 2035 2035 2035 2035 2035 2035 
2035 2035 2035 2035 2035 2035 2035 2035 2035 
2035 2035 2035 2035 2035 2035 2035 2035 2035 
2035 2035 2035 2035 2035 2035 2035 2035 2035 
2035 2035 2035 2035 2035 2035 2035 2035 2035 
2035 2035 2035 2035 2035 2035 2035 2035 2035 
2035 2035 2035 2035 2035 2035 2035 2035 2035 
2035 2035 2035 2035 2035 2035 2035 2035 2035 
2035 2035 2035 2035 2035 2035 2035 2035 2035 
2035 2035 2035 2035 2035 2035 2035 2035 2035 
2035 2035 2035 2035 2035 2035 2035 2035 2035 
2035 2035 2035 2035 2035 2035 2035 2035 2035 
2035 2035 2035 2035 2035 2035 2035 2035 2035 
2035 2035 2035 2035 2035 2035 2035 2035 2035 
2035 2035 2035 2035 2035 2035 2035 2035 2035 
2035 2035 2035 2035 2035 2035 2035 2035 2035 
2035 2035 2035 2035 2035 2035 2035 2035 2035 
2035 2035 2035 2035 2035 2035 2035 2035 2035 
2035 2035 2035 2035 2035 2035 2035 2035 2035 
2035 2035 2035 2035 2035 2035 2035 2035 2035 
2035 2035 2035 2035 2035 2035 2035 2035 2035 
2035 2035 2035 2035 2035 2035 2035 2035 2035 
2035 2035 2035 2035 2035 2035 2035 2035 2035 
2035 2035 2035 2035 2035 2035 2035 2035 2035 
2035 2035 2035 2035 2035 2035 2035 2035 2035 
2035 2035 2035 2035 2035 2035 2035 2035 2035 
2035 2035 2035 2035 2035 2035 2035 2035 2035 
2035 2035 2035 2035 2035 2035 2035 2035 2035 
2035 2035 2035 2035 2035 2035 2035 2035 2035 
2035 2035 2035 2035 2035 2035 2035 2035 2035 
2035 2035 2035 2035 2035 2035 2035 2035 2035 
2035 2035 2035 2035 2035 2035 2035 2035 2035 
2035 2035 2035 2035 2035 2035 2035 2035 2035 
2035 2035 2035 2035 2035 2035 2035 2035 2035 
2035 2035 2035 2035 2035 2035 2035 2035 2035 
2035 2035 2035 2035 2035 2035 2035 2035 2035 
2035 2035 2035 2035 2035 2035 2035 2035 2035 
2035 2035 2035 2035 2035 2035 2035 2035 2035 
2035 2035 2035 2035 2035 2035 2035 2035 2035 
2035 2035 2035 2035 2035 2035 2035 2035 2035 
2035 2035 2035 2035 2035 2035 2035 2035 2035 
2035 2035 2035 2035 2035 2035 2035 2035 2035 
2035 2035 2035 2035 2035 2035 2035 2035 2035 
2035 2035 2035 2035 2035 2035 2035 2035 2035 
2035 2035 2035 2035 2035 2035 2035 2035 2035 
2035 2035 2035 2035 2035 2035 2035 2035 2035 
2035 2035 2035 2035 2035 2035 2035 2035 2035 
2035 2035 2035 2035 2035 2035 2035 2035 2035 
2035 2035 2035 2035 2035 2035 2035 2035 2035 
2035 2035 2035 2035 2035 2035 2035 2035 2035 
2035 2035 2035 2035 2035 2035 2035 2035 2035 
2035 2035 2035 2035 2035 2035 2035 2035 2035 
2035 2035 2035 2035 2035 2035 2035 2035 2035 
2035 2035 2035 2035 2035 2035 2035 2035 2035 
2035 2035 2035 2035 2035 2035 2035 2035 2035 
2035 2035 2035 2035 2035 2035 2035 2035 2035 
2035 2035 2035 2035 2035 2035 2035 2035 2035 
2035 2035 2035 2035 2035 2035 2035 2035 2035 
2035 2035 2035 2035 2035 2035 2035 2035 2035 
2035 2035 2035 2035 2035 2035 2035 2035 2035 
2035 2035 2035 2035 2035 2035 2035 2035 2035 
2035 2035 2035 2035 2035 2035 2035 2035 2035 
2035 2035 2035 2035 2035 2035 2035 2035 2035 
2035 2035 2035 2035 2035 2035 2035 2035 2035 
2035 2035 2035 2035 2035 2035 2035 2035 2035 
2035 2035 2035 2035 2035 2035 2035 2035 2035 
2035 2035 2035 2035 2035 2035 2035 2035 2035 
2035 2035 2035 2035 2035 2035 2035 2035 2035 
2035 2035 2035 2035 2035 2035 2035 2035 2035 
2035 2035 2035 2035 2035 2035 2035 2035 2035 
2035 2035 2035 2035 2035 2035 2035 2035 2035 
2035 2035 2035 2035 2035 2035 2035 2035 2035 
2035 2035 2035 2035 2035 2035 2035 2035 2035 
2035 2035 2035 2035 2035 2035 2035 2035 2035 
2035 2035 2035 2035 2035 2035 2035 2035 2035 
2035 2035 2035 2035 2035 2035 2035 2035 2035 
2035 2035 2035 2035 2035 2035 2035 2035 2035 
2035 2035 2035 2035 2035 2035 2035 2035 2035 
2035 2035 2035 2035 2035 2035 2035 2035 2035 
2035 2035 2035 2035 2035 2035 2035 2035 2035 
2035 2035 2035 2035 2035 2035 2035 2035 2035 
2035 2035 2035 2035 2035 2035 2035 2035 2035 
2035 2035 2035 2035 2035 2035 2035 2035 2035 
2035 2035 2035 2035 2035 2035 2035 2035 2035 
2035 2035 2035 2035 2035 2035 2035 2035 2035 
2035 2035 2035 2035 2035 2035 2035 2035 2035 
2035 2035 2035 2035 2035 2035 2035 2035 2035 
2035 2035 2035 2035 2035 2035 2035 2035 2035 
2035 2035 2035 2035 2035 2035 2035 2035 2035 
2035 2035 2035 2035 2035 2035 2035 2035 2035 
2035 2035 2035 2035 2035 2035 2035 2035 2035 
2035 2035 2035 2035 2035 2035 2035 2035 2035 
2035 2035 2035 2035 2035 2035 2035 2035 2035 
2035 2035 2035 2035 2035 2035 2035 2035 2035 
2035 2035 2035 2035 2035 2035 2035 2035 2035 
2035 2035 2035 2035 2035 2035 2035 2035 2035 
2035 2035 2035 2035 2035 2035 2035 2035 2035 
2035 2035 2035 2035 2035 2035 2035 2035 2035 
2035 2035 2035 2035 2035 2035 2035 2035 2035 
2035 2035 2035 2035 2035 2035 2035 2035 2035 
2035 2035 2035 2035 2035 2035 2035 2035 2035 
2035 2035 2035 2035 2035 2035 2035 2035 2035 
2035 2035 2035 2035 2035 2035 2035 2035 2035 
2035 2035 2035 2035 2035 2035 2035 2035 2035 
2035 2035 2035 2035 2035 2035 2035 2035 2035 
2035 2035 2035 2035 2035 2035 2035 2035 2035 
2035 2035 2035 2035 2035 2035 2035 2035 2035 
2035 2035 2035 2035 2035 2035 2035 2035 2035 
2035 2035 2035 2035 2035 2035 2035 2035 2035 
2035 2035 2035 2035 2035 2035 2035 2035 2035 
2035 2035 2035 2035 2035 2035 2035 2035 2035 
2035 2035 2035 2035 2035 2035 2035 2035 2035 
2035 2035 2035 2035 2035 2035 2035 2035 2035 
2035 2035 2035 2035 2035 2035 2035 2035 2035 
2035 2035 2035 2035 2035 2035 2035 2035 2035 
2035 2035 2035 2035 2035 2035 2035 2035 2035 
2035 2035 2035 2035 2035 2035 2035 2035 2035 
2035 2035 2035 2035 2035 2035 2035 2035 2035 
2035 2035 2035 2035 2035 2035 2035 2035 2035 
2035 2035 2035 2035 2035 2035 2035 2035 2035 
2035 2035 2035 2035 2035 2035 2035 2035 2035 
2035 2035 2035 2035 2035 2035 2035 2035 2035 
2035 2035 2035 2035 2035 2035 2035 2035 2035 
2035 2035 2035 2035 2035 2035 2035 2035 2035 
2035 2035 2035 2035 2035 2035 2035 2035 2035 
2035 2035 2035 2035 2035 2035 2035 2035 2035 
2035 2035 2035 2035 2035 2035 2035 2035 2035 
2035 2035 2035 2035 2035 2035 2035 2035 2035 
2035 2035 2035 2035 2035 2035 2035 2035 2035 
2035 2035 2035 2035 2035 2035 2035 2035 2035 
2035 2035 2035 2035 2035 2035 2035 2035 2035 
2035 2035 2035 2035 2035 2035 2035 2035 2035 
2035 2035 2035 2035 2035 2035 2035 2035 2035 
2035 2035 2035 2035 2035 2035 2035 2035 2035 
2035 2035 2035 2035 2035 2035 2035 2035 2035 
2035 2035 2035 2035 2035 2035 2035 2035 2035 
2035 2035 2035 2035 2035 2035 2035 2035 2035 
2035 2035 2035 2035 2035 2035 2035 2035 2035 
2035 2035 2035 2035 2035 2035 2035 2035 2035 
2035 2035 2035 2035 2035 2035 2035 2035 2035 
2035 2035 2035 2035 2035 2035 2035 2035 2035 
2035 2035 2035 2035 2035 2035 2035 2035 2035 
2035 2035 2035 2035 2035 2035 2035 2035 2035 
2035 2035 2035 2035 2035 2035 2035 2035 2035 
2035 2035 2035 2035 2035 2035 2035 2035 2035 
2035 2035 2035 2035 2035 2035 2035 2035 2035 
2035 2035 2035 2035 2035 2035 2035 2035 2035 
2035 2035 2035 2035 2035 2035 2035 2035 2035 
2035 2035 2035 2035 2035 2035 2035 2035 2035 
2035 2035 2035 2035 2035 2035 2035 2035 2035 
2035 2035 2035 2035 2035 2035 2035 2035 2035 
2035 2035 2035 2035 2035 2035 2035 2035 2035 
2035 2035 2035 2035 2035 2035 2035 2035 2035 
2035 2035 2035 2035 2035 2035 2035 2035 2035 
2035 2035 2035 2035 2035 2035 2035 2035 2035 
2035 2035 2035 2035 2035 2035 2035 2035 2035 
2035 2035 2035 2035 2035 2035 2035 2035 2035 
2035 2035 2035 2035 2035 2035 2035 2035 2035 
2035 2035 2035 2035 2035 2035 2035 2035 2035 
2035 2035 2035 2035 2035 2035 2035 2035 2035 
2035 2035 2035 2035 2035 2035 2035 2035 2035 
2035 2035 2035 2035 2035 2035 2035 2035 2035 
2035 2035 2035 2035 2035 2035 2035 2035 2035 
2035 2035 2035 2035 2035 2035 2035 2035 2035 
2035 2035 2035 2035 2035 2035 2035 2035 2035 
2035 2035 2035 2035 2035 2035 2035 2035 2035 
2035 2035 2035 2035 2035 2035 2035 2035 2035 
2035 2035 2035 2035 2035 2035 2035 2035 2035 
2035 2035 2035 2035 2035 2035 2035 2035 2035 
2035 2035 2035 2035 2035 2035 2035 2035 2035 
2035 2035 2035 2035 2035 2035 2035 2035 2035 
2035 2035 2035 2035 2035 2035 2035 2035 2035 
2035 2035 2035 2035 2035 2035 2035 2035 2035 
2035 2035 2035 2035 2035 2035 2035 2035 2035 
2035 2035 2035 2035 2035 2035 2035 2035 2035 
2035 2035 2035 2035 2035 2035 2035 2035 2035 
2035 2035 2035 2035 2035 2035 2035 2035 2035 
2035 2035 2035 2035 2035 2035 2035 2035 2035 
2035 2035 2035 2035 2035 2035 2035 2035 2035 
2035 2035 2035 2035 2035 2035 2035 2035 2035 
2035 2035 2035 2035 2035 2035 2035 2035 2035 
2035 2035 2035 2035 2035 2035 2035 2035 2035 
2035 2035 2035 2035 2035 2035 2035 2035 2035 
2035 2035 2035 2035 2035 2035 2035 2035 2035 
2035 2035 2035 2035 2035 2035 2035 2035 2035 
2035 2035 2035 2035 2035 2035 2035 2035 2035 
2035 2035 2035 2035 2035 2035 2035 2035 2035 
2035 2035 2035 2035 2035 2035 2035 2035 2035 
2035 2035 2035 2035 2035 2035 2035 2035 2035 
2035 2035 2035 2035 2035 2035 2035 2035 2035 
2035 2035 2035 2035 2035 2035 2035 2035 2035 
2035 2035 2035 2035 2035 2035 2035 2035 2035 
2035 2035 2035 2035 2035 2035 2035 2035 2035 
2035 2035 2035 2035 2035 2035 2035 2035 2035 
2035 2035 2035 2035 2035 2035 2035 2035 2035 
2035 2035 2035 2035 2035 2035 2035 2035 2035 
2035 2035 2035 2035 2035 2035 2035 2035 2035 
2035 2035 2035 2035 2035 2035 2035 2035 2035 
2035 2035 2035 2035 2035 2035 2035 2035 2035 
2035 2035 2035 2035 2035 2035 2035 2035 2035 
2035 2035 2035 2035 2035 2035 2035 2035 2035 
2035 2035 2035 2035 2035 2035 2035 2035 2035 
2035 2035 2035 2035 2035 2035 2035 2035 2035 
2035 2035 2035 2035 2035 2035 2035 2035 2035 
2035 2035 2035 2035 2035 2035 2035 2035 2035 
2035 2035 2035 2035 2035 2035 2035 2035 2035 
2035 2035 2035 2035 2035 2035 2035 2035 2035 
2035 2035 2035 2035 2035 2035 2035 2035 2035 
2035 2035 2035 2035 2035 2035 2035 2035 2035 
2035 2035 2035 2035 2035 2035 2035 2035 2035 
2035 2035 2035 2035 2035 2035 2035 2035 2035 
2035 2035 2035 2035 2035 2035 2035 2035 2035 
2035 2035 2035 2035 2035 2035 2035 2035 2035 
2035 2035 2035 2035 2035 2035 2035 2035 2035 
2035 2035 2035 2035 2035 2035 2035 2035 2035 
2035 2035 2035 2035 2035 2035 2035 2035 2035 
2035 2035 2035 2035 2035 2035 2035 2035 2035 
2035 2035 2035 2035 2035 2035 2035 2035 2035 
2035 2035 2035 2035 2035 2035 2035 2035 2035 
2035 2035 2035 2035 2035 2035 2035 2035 2035 
2035 2035 2035 2035 2035 2035 2035 2035 2035 
2035 2035 2035 2035 2035 2035 2035 2035 2035 
2035 2035 2035 2035 2035 2035 2035 2035 2035 
2035 2035 2035 2035 2035 2035 2035 2035 2035 
2035 2035 2035 2035 2035 2035 2035 2035 2035 
2035 2035 2035 2035 2035 2035 2035 2035 2035 
2035 2035 2035 2035 2035 2035 2035 2035 2035 
2035 2035 2035 2035 2035 2035 2035 2035 2035 
2035 2035 2035 2035 2035 2035 2035 2035 2035 
2035 2035 2035 2035 2035 2035 2035 2035 2035 
2035 2035 2035 2035 2035 2035 2035 2035 2035 
2035 2035 2035 2035 2035 2035 2035 2035 2035 
2035 2035 2035 2035 2035 2035 2035 2035 2035 
2035 2035 2035 2035 2035 2035 2035 2035 2035 
2035 2035 2035 2035 2035 2035 2035 2035 2035 
2035 2035 2035 2035 2035 2035 2035 2035 2035 
2035 2035 2035 2035 2035 2035 2035 2035 2035 
2035 2035 2035 2035 2035 2035 2035 2035 2035 
2035 2035 2035 2035 2035 2035 2035 2035 2035 
2035 2035 2035 2035 2035 2035 2035 2035 2035 
2035 2035 2035 2035 2035 2035 2035 2035 2035 
2035 2035 2035 2035 2035 2035 2035 2035 2035 
2035 2035 2035 2035 2035 2035 2035 2035 2035 
2035 2035 2035 2035 2035 2035 2035 2035 2035 
2035 2035 2035 2035 2035 2035 2035 2035 2035 
2035 2035 2035 2035 2035 2035 2035 2035 2035 
2035 2035 2035 2035 2035 2035 2035 2035 2035 
2035 2035 2035 2035 2035 2035 2035 2035 2035 
2035 2035 2035 2035 2035 2035 2035 2035 2035 
2035 2035 2035 2035 2035 2035 2035 2035 2035 
2035 2035 2035 2035 2035 2035 2035 2035 2035 
2035 2035 2035 2035 2035 2035 2035 2035 2035 
2035 2035 2035 2035 2035 2035 2035 2035 2035 
2035 2035 2035 2035 2035 2035 2035 2035 2035 
2035 2035 2035 2035 2035 2035 2035 2035 2035 
2035 2035 2035 2035 2035 2035 2035 2035 2035 
2035 2035 2035 2035 2035 2035 2035 2035 2035 
2035 2035 2035 2035 2035 2035 2035 2035 2035 
2035 2035 2035 2035 2035 2035 2035 2035 2035 
2035 2035 2035 2035 2035 2035 2035 2035 2035 
2035 2035 2035 2035 2035 2035 2035 2035 2035 
2035 2035 2035 2035 2035 2035 2035 2035 2035 
2035 2035 2035 2035 2035 2035 2035 2035 2035 
2035 2035 2035 2035 2035 2035 2035 2035 2035 
2035 2035 2035 2035 2035 2035 2035 2035 2035 
2035 2035 2035 2035 2035 2035 2035 2035 2035 
2035 2035 2035 2035 2035 2035 2035 2035 2035 
2035 2035 2035 2035 2035 2035 2035 2035 2035 
2035 2035 2035 2035 2035 2035 2035 2035 2035 
2035 2035 2035 2035 2035 2035 2035 2035 2035 
2035 2035 2035 2035 2035 2035 2035 2035 2035 
2035 2035 2035 2035 2035 2035 2035 2035 2035 
2035 2035 2035 2035 2035 2035 2035 2035 2035 
2035 2035 2035 2035 2035 2035 2035 2035 2035 
2035 2035 2035 2035 2035 2035 2035 2035 2035 
2035 2035 2035 2035 2035 2035 2035 2035 2035 
2035 2035 2035 2035 2035 2035 2035 2035 2035 
2035 2035 2035 2035 2035 2035 2035 2035 2035 
2035 2035 2035 2035 2035 2035 2035 2035 2035 
2035 2035 2035 2035 2035 2035 2035 2035 2035 
2035 2035 2035 2035 2035 2035 2035 2035 2035 
2035 2035 2035 2035 2035 2035 2035 2035 2035 
2035 2035 2035 2035 2035 2035 2035 2035 2035 
2035 2035 2035 2035 2035 2035 2035 2035 2035 
2035 2035 2035 2035 2035 2035 2035 2035 2035 
2035 2035 2035 2035 2035 2035 2035 2035 2035 
2035 2035 2035 2035 2035 2035 2035 2035 2035 
2035 2035 2035 2035 2035 2035 2035 2035 2035 
2035 2035 2035 2035 2035 2035 2035 2035 2035 
2035 2035 2035 2035 2035 2035 2035 2035 2035 
2035 2035 2035 2035 2035 2035 2035 2035 2035 
2035 2035 2035 2035 2035 2035 2035 2035 2035 
2035 2035 2035 2035 2035 2035 2035 2035 2035 
2035 2035 2035 2035 2035 2035 2035 2035 2035 
2035 2035 2035 2035 2035 2035 2035 2035 2035 
2035 2035 2035 2035 2035 2035 2035 2035 2035 
2035 2035 2035 2035 2035 2035 2035 2035 2035 
2035 2035 2035 2035 2035 2035 2035 2035 2035 
2035 2035 2035 2035 2035 2035 2035 2035 2035 
2035 2035 2035 2035 2035 2035 2035 2035 2035 
2035 2035 2035 2035 2035 2035 2035 2035 2035 
2035 2035 2035 2035 2035 2035 2035 2035 2035 
2035 2035 2035 2035 2035 2035 2035 2035 2035 
2035 2035 2035 2035 2035 2035 2035 2035 2035 
2035 2035 2035 2035 2035 2035 2035 2035 2035 
2035 2035 2035 2035 2035 2035 2035 2035 2035 
2035 2035 2035 2035 2035 2035 2035 2035 2035 
2035 2035 2035 2035 2035 2035 2035 2035 2035 
2035 2035 2035 2035 2035 2035 2035 2035 2035 
2035 2035 2035 2035 2035 2035 2035 2035 2035 
2035 2035 2035 2035 2035 2035 2035 2035 2035 
2035 2035 2035 2035 2035 2035 2035 2035 2035 
2035 2035 2035 2035 2035 2035 2035 2035 2035 
2035 2035 2035 2035 2035 2035 2035 2035 2035 
2035 2035 2035 2035 2035 2035 2035 2035 2035 
2035 2035 2035 2035 2035 2035 2035 2035 2035 
2035 2035 2035 2035 2035 2035 2035 2035 2035 
2035 2035 2035 2035 2035 2035 2035 2035 2035 
2035 2035 2035 2035 2035 2035 2035 2035 2035 
2035 2035 2035 2035 2035 2035 2035 2035 2035 