# vtk DataFile Version 4.0
vtk output
ASCII
DATASET POLYDATA
POINTS 18434 float
48.9981 -57.6877 5.40981 49.3659 -57.3724 5.0173 49.0774 -57.2743 5.00998 
48.6207 -57.5764 5.10043 49.1642 -57.5833 4.74639 49.301 -58.1664 5.86041 
49.0648 -58.4508 6.1831 49.3448 -58.4752 6.0741 48.8117 -58.4547 5.92156 
49.7933 -58.7215 5.55251 50.3237 -58.7107 4.7284 49.7277 -57.9168 5.13188 
47.9229 -57.9 4.74773 48.0611 -58.4975 5.51043 46.9323 -58.1815 4.81822 
47.1779 -58.4301 5.31029 46.654 -58.7197 5.08202 49.8317 -58.213 4.42903 
48.8828 -57.9671 3.96264 49.6721 -58.4385 3.64914 47.8449 -57.9072 3.76892 
47.0635 -58.0443 4.00342 46.3902 -58.6258 4.32898 49.0653 -58.2292 3.1873 
49.5073 -58.6897 2.82903 48.2726 -58.0922 3.09604 47.3278 -58.1386 3.08699 
46.5051 -58.4175 3.3222 48.6872 -58.5927 2.62661 47.8441 -58.4636 2.5859 
47.0415 -58.6195 2.56683 49.1624 -58.7204 6.01391 49.8024 -59.669 5.46218 
50.5879 -59.5312 5.06167 48.8413 -59.3765 5.6723 47.7734 -59.687 5.59065 
47.0605 -59.2529 5.43709 46.4469 -59.6525 4.79905 50.2079 -58.7847 4.03409 
50.6144 -59.504 3.80867 45.9906 -59.3223 4.27718 45.7462 -58.9774 3.65039 
45.668 -59.6481 3.9229 50.1242 -58.9588 3.20669 50.4418 -59.4781 2.76441 
46.1297 -58.7814 2.73498 45.1496 -59.6449 3.49171 45.2288 -59.1865 2.84094 
44.6714 -59.759 3.08468 49.9661 -59.2172 2.26207 50.3476 -59.8268 2.05351 
49.079 -59.292 2.22609 49.5881 -59.4767 1.90832 47.9509 -59.1338 2.23983 
46.9125 -59.0897 2.09408 47.5865 -59.6527 1.82615 46.0088 -59.13 2.04569 
45.3942 -59.4428 2.06517 44.8653 -59.824 2.51396 49.7986 -59.7518 1.67441 
46.8152 -59.7287 1.55339 45.964 -59.6673 1.60946 50.8745 -60.1399 5.82618 
51.0628 -60.4369 6.20528 51.2486 -60.3558 5.82675 50.8211 -60.6457 6.03514 
51.1494 -60.0172 5.21549 51.6038 -60.7748 4.94591 50.1531 -60.5934 5.62008 
49.0255 -60.543 5.54617 48.1131 -60.4226 5.56179 47.1868 -60.4088 5.35285 
46.7189 -60.5799 4.77306 51.0914 -60.0532 4.32502 51.2966 -60.7736 3.97385 
46.0297 -59.9347 4.18113 46.3753 -60.3981 4.25976 50.9676 -60.4005 3.5839 
50.6607 -60.3593 2.88632 45.8641 -60.5292 3.58674 44.8882 -60.2667 3.25426 
44.6717 -60.3008 2.8799 50.325 -60.6848 2.16382 49.1812 -59.8243 1.80424 
48.3978 -59.9009 1.87323 45.4717 -60.1525 1.89565 45.0383 -60.51 2.41992 
49.889 -60.4201 1.60208 48.9642 -60.4849 1.52307 47.7338 -60.4522 1.50253 
46.9934 -60.465 1.35237 46.328 -60.528 1.53289 51.2641 -60.8391 5.87649 
52.1289 -61.2512 5.00241 51.7738 -61.412 5.26656 52.2271 -61.5075 4.98868 
50.7665 -61.5547 5.56091 49.8453 -61.7243 5.55718 49.1831 -61.4033 5.55123 
48.0535 -61.3634 5.36843 47.1691 -61.0796 4.98993 47.4813 -61.5209 4.79745 
52.0651 -61.3929 4.75192 51.5907 -61.681 4.21698 46.863 -61.066 4.24591 
47.3105 -61.747 4.26946 51.0399 -61.1597 3.37229 50.6427 -61.2289 2.7734 
46.7213 -61.3766 3.54676 46.0569 -61.1495 2.937 46.4977 -61.7059 3.00959 
45.2431 -60.7748 2.85942 50.3281 -61.5545 2.31823 49.8978 -61.0613 1.81055 
49.8179 -61.644 1.82206 45.8156 -60.9858 2.23817 46.4178 -61.5917 2.07482 
49.331 -61.434 1.51886 48.1694 -61.6813 1.55663 47.0269 -61.3836 1.50409 
51.9533 -61.6944 4.83956 51.3379 -61.9813 4.94395 50.5217 -62.5663 5.01696 
49.9256 -62.4729 5.32175 48.9588 -62.2548 5.35124 47.9526 -62.1547 4.92265 
48.5702 -62.7707 4.96689 52.0678 -62.4078 4.30025 52.5107 -62.4435 3.64325 
51.929 -62.0797 3.73613 51.1683 -62.5813 4.68611 48.0533 -62.8115 4.69581 
47.3671 -62.4737 4.36036 46.9758 -61.9412 3.82318 46.7949 -62.3397 3.75436 
52.0457 -62.23 3.20337 52.4308 -62.5452 2.89495 51.2366 -61.8983 3.08391 
46.443 -62.4893 3.03593 51.701 -62.6519 2.57677 50.7631 -62.4951 2.4454 
50.2061 -62.0827 2.03878 50.315 -62.6456 2.06706 47.8752 -62.3113 1.94426 
48.2487 -62.4037 1.91131 47.9913 -62.5362 2.13712 47.734 -62.5545 2.02463 
46.4326 -62.5735 1.89388 49.7313 -62.3992 1.68332 48.7478 -62.5507 1.57972 
47.3386 -62.5512 1.55419 52.8184 -63.1795 5.11658 52.8413 -63.7008 5.32334 
53.3026 -63.361 4.85929 51.9425 -62.9644 4.96086 52.0516 -63.5846 5.46878 
50.9117 -63.1606 4.93004 51.2371 -63.4655 5.29791 49.9269 -62.9818 4.99654 
50.5133 -63.8215 4.84518 49.3206 -62.9998 5.00211 52.9205 -62.9234 4.33107 
53.6335 -63.6706 3.96468 49.9951 -63.3144 4.61955 48.7411 -63.3703 4.50313 
47.8206 -63.2486 4.31708 46.9708 -63.0355 3.91072 47.5881 -63.6589 3.92119 
53.0095 -62.9381 3.10169 53.4605 -63.4445 2.79889 46.9098 -63.8344 3.64059 
46.1047 -63.456 3.42184 45.9877 -63.0455 2.67987 45.5019 -63.6133 2.98756 
53.0884 -63.1901 2.16693 53.4271 -63.7964 1.83533 52.3973 -63.0045 2.14357 
51.5968 -63.3135 2.04468 50.8554 -63.5279 2.33771 50.1613 -63.4412 2.35448 
49.9287 -63.0878 1.92023 49.5287 -63.6665 2.08039 48.0174 -62.7417 1.85972 
45.9765 -63.1139 2.0409 45.4862 -63.7 2.08535 52.7449 -63.4622 1.47175 
51.9521 -63.508 1.56578 49.0897 -63.3868 1.64733 47.9741 -63.2726 1.38046 
47.1244 -63.2488 0.988104 47.4329 -63.8465 0.907191 46.5397 -63.2362 1.09913 
45.9821 -63.4797 1.43438 46.7143 -63.7862 0.648596 39.9928 -63.2965 -13.0385 
40.1886 -63.4592 -12.7342 40.2646 -63.4231 -13.1998 39.7479 -63.7769 -12.8934 
39.9197 -63.5605 -13.4575 53.3134 -63.921 4.85572 52.6722 -64.422 5.00599 
52.0405 -64.5637 5.46885 51.1324 -64.2009 5.4502 50.5932 -64.6281 5.03917 
54.1035 -64.199 4.03815 53.848 -64.5833 4.37901 54.3294 -64.7189 3.76782 
53.0287 -64.5688 4.64475 50.0075 -63.9862 4.11752 50.4575 -64.6008 4.20557 
49.295 -63.9833 3.9457 48.3457 -63.9214 3.94655 54.0529 -64.2846 3.59389 
53.7498 -64.1035 2.89656 49.8529 -64.6994 3.61295 48.7877 -64.6382 3.5482 
47.7282 -64.4619 3.55784 46.8368 -64.6526 3.46149 46.0157 -64.4764 3.50934 
45.0026 -64.0592 2.71793 45.1158 -64.391 3.35133 44.4971 -64.6324 3.01482 
53.5418 -64.7022 1.97633 51.1302 -63.918 1.59409 50.4781 -64.4581 1.92824 
49.8585 -64.5358 2.35317 49.1182 -64.4507 2.37203 48.8906 -64.0848 1.97006 
48.3857 -64.6433 2.13173 45.0032 -64.1124 2.13387 44.5674 -64.5029 2.33897 
53.0551 -63.954 0.997789 53.3862 -64.5695 0.995556 52.0979 -63.9606 0.953898 
51.1792 -64.2273 0.86798 50.743 -64.5096 1.20521 48.126 -64.2953 1.57446 
47.7101 -64.6894 1.0303 46.128 -63.9063 0.824163 45.5773 -64.2562 1.12608 
44.9493 -64.4465 1.64156 52.8208 -64.4637 0.579393 52.0299 -64.6582 0.595101 
51.1579 -64.5425 0.735665 47.1683 -64.5191 0.549395 46.1943 -64.5853 0.503211 
43.7806 -64.161 -0.0476979 44.0838 -64.537 0.321965 44.4655 -64.4353 -0.387042 
43.0329 -64.1297 -0.188549 43.2627 -64.4451 0.509585 42.1925 -64.2265 -0.0945917 
42.0922 -64.6119 0.503633 41.5262 -64.6481 -0.125131 43.9442 -64.1773 -0.771074 
44.5529 -64.5793 -1.12794 43.4804 -64.3864 -0.907121 42.7468 -64.6 -0.535136 
42.0469 -64.472 -0.30189 44.1095 -64.7579 -1.35085 40.8164 -64.1945 -11.9294 
40.7768 -64.7022 -11.6159 41.2664 -64.6933 -12.3163 40.2141 -63.9042 -12.1939 
40.2695 -64.3645 -11.584 39.6226 -64.4883 -12.1251 40.7985 -63.8947 -12.8662 
41.3867 -64.4969 -13.1722 39.4772 -64.45 -12.982 40.9443 -64.1478 -13.9398 
41.425 -64.7247 -13.7943 40.2026 -63.8969 -13.9847 39.603 -64.3795 -13.7452 
41.0862 -64.5918 -14.584 40.4112 -64.5374 -15.2337 40.2968 -64.2315 -14.8188 
39.6715 -64.6951 -14.9003 39.9044 -64.6282 -15.4998 40.9704 -64.2227 -17.27 
41.19 -64.5135 -16.7636 41.5037 -64.6224 -17.3754 40.6625 -64.4729 -16.9655 
41.096 -64.2561 -17.8018 41.2949 -64.6916 -18.0603 40.556 -64.4023 -17.7061 
40.7377 -64.6798 -18.2934 51.9047 -65.7764 5.40618 52.2751 -65.4035 4.88807 
51.1064 -65.2069 5.44393 50.671 -65.4196 4.83548 53.903 -65.7533 4.37377 
54.4311 -65.308 4.01016 53.0333 -65.4274 4.34619 52.1557 -65.1369 4.30905 
51.7528 -65.694 4.44392 52.4367 -65.5593 4.00079 51.0968 -65.6301 4.4546 
51.119 -65.1656 4.04936 54.0292 -64.8941 2.9528 54.5631 -65.4598 3.32718 
51.9066 -65.6025 3.53954 50.7329 -65.4732 3.4625 49.9093 -65.6367 3.44478 
49.0518 -65.5032 3.41697 48.0384 -65.4973 3.41268 47.1956 -65.3466 3.42599 
46.31 -65.5321 3.58274 45.1017 -65.4609 3.63584 43.8133 -65.0703 2.68582 
44.0987 -65.4146 3.3594 43.3843 -65.6446 3.10094 54.248 -65.7298 2.65145 
53.3317 -65.4149 2.53442 52.8244 -65.1525 1.7419 52.3576 -65.4722 2.42723 
51.7684 -65.1512 1.68462 51.6416 -65.7588 2.29225 49.9579 -65.0261 1.7298 
49.5629 -65.4866 1.86902 49.1177 -65.6201 2.28201 47.9237 -65.5221 2.26273 
47.9708 -64.9759 2.02026 47.6819 -65.4693 1.67334 44.0517 -64.8854 1.69493 
42.906 -65.6778 2.63982 42.9175 -65.1616 1.88741 42.3922 -65.6369 2.09084 
53.1106 -65.5984 1.37558 53.3474 -65.4643 1.07561 52.0113 -64.9697 1.05898 
52.5627 -65.6258 1.00483 50.9664 -65.3305 1.46596 51.134 -64.8345 1.09844 
50.5282 -65.6664 0.818768 50.0657 -65.3176 1.06155 49.6425 -65.4952 1.16985 
48.0604 -65.7274 1.22845 48.2166 -65.5509 0.988848 48.0258 -65.2788 1.14404 
45.0566 -64.8513 0.844115 44.0162 -64.8499 0.867784 43.0116 -64.8274 1.14291 
41.9015 -65.6644 1.60862 42.1976 -65.0402 1.18558 41.4491 -65.437 1.00929 
52.9511 -65.4054 0.591802 50.0012 -65.8552 0.655925 47.8437 -65.2394 0.726284 
47.1187 -65.4976 0.257436 45.9053 -65.1557 -0.0273056 46.6907 -65.7162 -0.213502 
44.8269 -64.8577 0.157044 40.7289 -65.0229 -0.302143 40.942 -65.4348 0.47782 
40.3977 -65.5655 0.0521096 46.0971 -65.6969 -0.613376 45.5077 -65.8682 -1.13134 
45.2189 -65.0285 -0.782688 43.5761 -65.1516 -1.06704 43.1683 -65.6839 -0.663993 
42.0893 -65.2083 -0.602874 41.1409 -65.0027 -0.808932 41.5997 -65.5527 -1.10445 
39.9461 -65.5882 -0.428798 40.3207 -65.1573 -0.996006 39.5721 -65.574 -0.98932 
44.818 -65.2984 -1.44005 44.3008 -65.6857 -1.40833 40.8516 -65.6511 -1.39519 
39.8102 -65.6706 -1.38542 39.8422 -65.0208 -11.1694 40.0143 -65.8605 -10.5606 
40.4943 -65.5685 -11.1675 38.9039 -65.2277 -11.114 39.1341 -65.465 -10.6148 
38.6147 -65.7035 -10.9107 42.0394 -65.346 -12.0286 42.1352 -65.6677 -11.8247 
42.3102 -65.6543 -12.1694 41.0643 -65.0494 -11.9313 41.6907 -65.6508 -11.7901 
40.722 -65.2944 -11.6591 39.1052 -65.1251 -11.868 38.5546 -65.776 -11.7982 
41.981 -65.6559 -12.3683 41.1656 -65.3468 -12.2321 41.5798 -65.3542 -13.0805 
39.2684 -65.1362 -12.9502 38.8375 -65.6856 -12.5562 41.703 -65.2647 -14.1151 
[...]
CELL_DATA 36980
SCALARS scalars float
LOOKUP_TABLE default
2011 2011 2011 2011 2011 2011 2011 2011 2011 
2011 2011 2011 2011 2011 2011 2011 2011 2011 
2011 2011 2011 2011 2011 2011 2011 2011 2011 
2011 2011 2011 2011 2011 2011 2011 2011 2011 
2011 2011 2011 2011 2011 2011 2011 2011 2011 
2011 2011 2011 2011 2011 2011 2011 2011 2011 
2011 2011 2011 2011 2011 2011 2011 2011 2011 
2011 2011 2011 2011 2011 2011 2011 2011 2011 
2011 2011 2011 2011 2011 2011 2011 2011 2011 
2011 2011 2011 2011 2011 2011 2011 2011 2011 
2011 2011 2011 2011 2011 2011 2011 2011 2011 
2011 2011 2011 2011 2011 2011 2011 2011 2011 
2011 2011 2011 2011 2011 2011 2011 2011 2011 
2011 2011 2011 2011 2011 2011 2011 2011 2011 
2011 2011 2011 2011 2011 2011 2011 2011 2011 
2011 2011 2011 2011 2011 2011 2011 2011 2011 
2011 2011 2011 2011 2011 2011 2011 2011 2011 
2011 2011 2011 2011 2011 2011 2011 2011 2011 
2011 2011 2011 2011 2011 2011 2011 2011 2011 
2011 2011 2011 2011 2011 2011 2011 2011 2011 
2011 2011 2011 2011 2011 2011 2011 2011 2011 
2011 2011 2011 2011 2011 2011 2011 2011 2011 
2011 2011 2011 2011 2011 2011 2011 2011 2011 
2011 2011 2011 2011 2011 2011 2011 2011 2011 
2011 2011 2011 2011 2011 2011 2011 2011 2011 
2011 2011 2011 2011 2011 2011 2011 2011 2011 
2011 2011 2011 2011 2011 2011 2011 2011 2011 
2011 2011 2011 2011 2011 2011 2011 2011 2011 
2011 2011 2011 2011 2011 2011 2011 2011 2011 
2011 2011 2011 2011 2011 2011 2011 2011 2011 
2011 2011 2011 2011 2011 2011 2011 2011 2011 
2011 2011 2011 2011 2011 2011 2011 2011 2011 
2011 2011 2011 2011 2011 2011 2011 2011 2011 
2011 2011 2011 2011 2011 2011 2011 2011 2011 
2011 2011 2011 2011 2011 2011 2011 2011 2011 
2011 2011 2011 2011 2011 2011 2011 2011 2011 
2011 2011 2011 2011 2011 2011 2011 2011 2011 
2011 2011 2011 2011 2011 2011 2011 2011 2011 
2011 2011 2011 2011 2011 2011 2011 2011 2011 
2011 2011 2011 2011 2011 2011 2011 2011 2011 
2011 2011 2011 2011 2011 2011 2011 2011 2011 
2011 2011 2011 2011 2011 2011 2011 2011 2011 
2011 2011 2011 2011 2011 2011 2011 2011 2011 
2011 2011 2011 2011 2011 2011 2011 2011 2011 
2011 2011 2011 2011 2011 2011 2011 2011 2011 
2011 2011 2011 2011 2011 2011 2011 2011 2011 
2011 2011 2011 2011 2011 2011 2011 2011 2011 
2011 2011 2011 2011 2011 2011 2011 2011 2011 
2011 2011 2011 2011 2011 2011 2011 2011 2011 
2011 2011 2011 2011 2011 2011 2011 2011 2011 
2011 2011 2011 2011 2011 2011 2011 2011 2011 
2011 2011 2011 2011 2011 2011 2011 2011 2011 
2011 2011 2011 2011 2011 2011 2011 2011 2011 
2011 2011 2011 2011 2011 2011 2011 2011 2011 
2011 2011 2011 2011 2011 2011 2011 2011 2011 
2011 2011 2011 2011 2011 2011 2011 2011 2011 
2011 2011 2011 2011 2011 2011 2011 2011 2011 
2011 2011 2011 2011 2011 2011 2011 2011 2011 
2011 2011 2011 2011 2011 2011 2011 2011 2011 
2011 2011 2011 2011 2011 2011 2011 2011 2011 
2011 2011 2011 2011 2011 2011 2011 2011 2011 
2011 2011 2011 2011 2011 2011 2011 2011 2011 
2011 2011 2011 2011 2011 2011 2011 2011 2011 
2011 2011 2011 2011 2011 2011 2011 2011 2011 
2011 2011 2011 2011 2011 2011 2011 2011 2011 
2011 2011 2011 2011 2011 2011 2011 2011 2011 
2011 2011 2011 2011 2011 2011 2011 2011 2011 
2011 2011 2011 2011 2011 2011 2011 2011 2011 
2011 2011 2011 2011 2011 2011 2011 2011 2011 
2011 2011 2011 2011 2011 2011 2011 2011 2011 
2011 2011 2011 2011 2011 2011 2011 2011 2011 
2011 2011 2011 2011 2011 2011 2011 2011 2011 
2011 2011 2011 2011 2011 2011 2011 2011 2011 
2011 2011 2011 2011 2011 2011 2011 2011 2011 
2011 2011 2011 2011 2011 2011 2011 2011 2011 
2011 2011 2011 2011 2011 2011 2011 2011 2011 
2011 2011 2011 2011 2011 2011 2011 2011 2011 
2011 2011 2011 2011 2011 2011 2011 2011 2011 
2011 2011 2011 2011 2011 2011 2011 2011 2011 
2011 2011 2011 2011 2011 2011 2011 2011 2011 
2011 2011 2011 2011 2011 2011 2011 2011 2011 
2011 2011 2011 2011 2011 2011 2011 2011 2011 
2011 2011 2011 2011 2011 2011 2011 2011 2011 
2011 2011 2011 2011 2011 2011 2011 2011 2011 
2011 2011 2011 2011 2011 2011 2011 2011 2011 
2011 2011 2011 2011 2011 2011 2011 2011 2011 
2011 2011 2011 2011 2011 2011 2011 2011 2011 
2011 2011 2011 2011 2011 2011 2011 2011 2011 
2011 2011 2011 2011 2011 2011 2011 2011 2011 
2011 2011 2011 2011 2011 2011 2011 2011 2011 
2011 2011 2011 2011 2011 2011 2011 2011 2011 
2011 2011 2011 2011 2011 2011 2011 2011 2011 
2011 2011 2011 2011 2011 2011 2011 2011 2011 
2011 2011 2011 2011 2011 2011 2011 2011 2011 
2011 2011 2011 2011 2011 2011 2011 2011 2011 
2011 2011 2011 2011 2011 2011 2011 2011 2011 
2011 2011 2011 2011 2011 2011 2011 2011 2011 
2011 2011 2011 2011 2011 2011 2011 2011 2011 
2011 2011 2011 2011 2011 2011 2011 2011 2011 
2011 2011 2011 2011 2011 2011 2011 2011 2011 
2011 2011 2011 2011 2011 2011 2011 2011 2011 
2011 2011 2011 2011 2011 2011 2011 2011 2011 
2011 2011 2011 2011 2011 2011 2011 2011 2011 
2011 2011 2011 2011 2011 2011 2011 2011 2011 
2011 2011 2011 2011 2011 2011 2011 2011 2011 
2011 2011 2011 2011 2011 2011 2011 2011 2011 
2011 2011 2011 2011 2011 2011 2011 2011 2011 
2011 2011 2011 2011 2011 2011 2011 2011 2011 
2011 2011 2011 2011 2011 2011 2011 2011 2011 
2011 2011 2011 2011 2011 2011 2011 2011 2011 
2011 2011 2011 2011 2011 2011 2011 2011 2011 
2011 2011 2011 2011 2011 2011 2011 2011 2011 
2011 2011 2011 2011 2011 2011 2011 2011 2011 
2011 2011 2011 2011 2011 2011 2011 2011 2011 
2011 2011 2011 2011 2011 2011 2011 2011 2011 
2011 2011 2011 2011 2011 2011 2011 2011 2011 
2011 2011 2011 2011 2011 2011 2011 2011 2011 
2011 2011 2011 2011 2011 2011 2011 2011 2011 
2011 2011 2011 2011 2011 2011 2011 2011 2011 
2011 2011 2011 2011 2011 2011 2011 2011 2011 
2011 2011 2011 2011 2011 2011 2011 2011 2011 
2011 2011 2011 2011 2011 2011 2011 2011 2011 
2011 2011 2011 2011 2011 2011 2011 2011 2011 
2011 2011 2011 2011 2011 2011 2011 2011 2011 
2011 2011 2011 2011 2011 2011 2011 2011 2011 
2011 2011 2011 2011 2011 2011 2011 2011 2011 
2011 2011 2011 2011 2011 2011 2011 2011 2011 
2011 2011 2011 2011 2011 2011 2011 2011 2011 
2011 2011 2011 2011 2011 2011 2011 2011 2011 
2011 2011 2011 2011 2011 2011 2011 2011 2011 
2011 2011 2011 2011 2011 2011 2011 2011 2011 
2011 2011 2011 2011 2011 2011 2011 2011 2011 
2011 2011 2011 2011 2011 2011 2011 2011 2011 
2011 2011 2011 2011 2011 2011 2011 2011 2011 
2011 2011 2011 2011 2011 2011 2011 2011 2011 
2011 2011 2011 2011 2011 2011 2011 2011 2011 
2011 2011 2011 2011 2011 2011 2011 2011 2011 
2011 2011 2011 2011 2011 2011 2011 2011 2011 
2011 2011 2011 2011 2011 2011 2011 2011 2011 
2011 2011 2011 2011 2011 2011 2011 2011 2011 
2011 2011 2011 2011 2011 2011 2011 2011 2011 
2011 2011 2011 2011 2011 2011 2011 2011 2011 
2011 2011 2011 2011 2011 2011 2011 2011 2011 
2011 2011 2011 2011 2011 2011 2011 2011 2011 
2011 2011 2011 2011 2011 2011 2011 2011 2011 
2011 2011 2011 2011 2011 2011 2011 2011 2011 
2011 2011 2011 2011 2011 2011 2011 2011 2011 
2011 2011 2011 2011 2011 2011 2011 2011 2011 
2011 2011 2011 2011 2011 2011 2011 2011 2011 
2011 2011 2011 2011 2011 2011 2011 2011 2011 
2011 2011 2011 2011 2011 2011 2011 2011 2011 
2011 2011 2011 2011 2011 2011 2011 2011 2011 
2011 2011 2011 2011 2011 2011 2011 2011 2011 
2011 2011 2011 2011 2011 2011 2011 2011 2011 
2011 2011 2011 2011 2011 2011 2011 2011 2011 
2011 2011 2011 2011 2011 2011 2011 2011 2011 
2011 2011 2011 2011 2011 2011 2011 2011 2011 
2011 2011 2011 2011 2011 2011 2011 2011 2011 
2011 2011 2011 2011 2011 2011 2011 2011 2011 
2011 2011 2011 2011 2011 2011 2011 2011 2011 
2011 2011 2011 2011 2011 2011 2011 2011 2011 
2011 2011 2011 2011 2011 2011 2011 2011 2011 
2011 2011 2011 2011 2011 2011 2011 2011 2011 
2011 2011 2011 2011 2011 2011 2011 2011 2011 
2011 2011 2011 2011 2011 2011 2011 2011 2011 
2011 2011 2011 2011 2011 2011 2011 2011 2011 
2011 2011 2011 2011 2011 2011 2011 2011 2011 
2011 2011 2011 2011 2011 2011 2011 2011 2011 
2011 2011 2011 2011 2011 2011 2011 2011 2011 
2011 2011 2011 2011 2011 2011 2011 2011 2011 
2011 2011 2011 2011 2011 2011 2011 2011 2011 
2011 2011 2011 2011 2011 2011 2011 2011 2011 
2011 2011 2011 2011 2011 2011 2011 2011 2011 
2011 2011 2011 2011 2011 2011 2011 2011 2011 
2011 2011 2011 2011 2011 2011 2011 2011 2011 
2011 2011 2011 2011 2011 2011 2011 2011 2011 
2011 2011 2011 2011 2011 2011 2011 2011 2011 
2011 2011 2011 2011 2011 2011 2011 2011 2011 
2011 2011 2011 2011 2011 2011 2011 2011 2011 
2011 2011 2011 2011 2011 2011 2011 2011 2011 
2011 2011 2011 2011 2011 2011 2011 2011 2011 
2011 2011 2011 2011 2011 2011 2011 2011 2011 
2011 2011 2011 2011 2011 2011 2011 2011 2011 
2011 2011 2011 2011 2011 2011 2011 2011 2011 
2011 2011 2011 2011 2011 2011 2011 2011 2011 
2011 2011 2011 2011 2011 2011 2011 2011 2011 
2011 2011 2011 2011 2011 2011 2011 2011 2011 
2011 2011 2011 2011 2011 2011 2011 2011 2011 
2011 2011 2011 2011 2011 2011 2011 2011 2011 
2011 2011 2011 2011 2011 2011 2011 2011 2011 
2011 2011 2011 2011 2011 2011 2011 2011 2011 
2011 2011 2011 2011 2011 2011 2011 2011 2011 
2011 2011 2011 2011 2011 2011 2011 2011 2011 
2011 2011 2011 2011 2011 2011 2011 2011 2011 
2011 2011 2011 2011 2011 2011 2011 2011 2011 
2011 2011 2011 2011 2011 2011 2011 2011 2011 
2011 2011 2011 2011 2011 2011 2011 2011 2011 
2011 2011 2011 2011 2011 2011 2011 2011 2011 
2011 2011 2011 2011 2011 2011 2011 2011 2011 
2011 2011 2011 2011 2011 2011 2011 2011 2011 
2011 2011 2011 2011 2011 2011 2011 2011 2011 
2011 2011 2011 2011 2011 2011 2011 2011 2011 
2011 2011 2011 2011 2011 2011 2011 2011 2011 
2011 2011 2011 2011 2011 2011 2011 2011 2011 
2011 2011 2011 2011 2011 2011 2011 2011 2011 
2011 2011 2011 2011 2011 2011 2011 2011 2011 
2011 2011 2011 2011 2011 2011 2011 2011 2011 
2011 2011 2011 2011 2011 2011 2011 2011 2011 
2011 2011 2011 2011 2011 2011 2011 2011 2011 
2011 2011 2011 2011 2011 2011 2011 2011 2011 
2011 2011 2011 2011 2011 2011 2011 2011 2011 
2011 2011 2011 2011 2011 2011 2011 2011 2011 
2011 2011 2011 2011 2011 2011 2011 2011 2011 
2011 2011 2011 2011 2011 2011 2011 2011 2011 
2011 2011 2011 2011 2011 2011 2011 2011 2011 
2011 2011 2011 2011 2011 2011 2011 2011 2011 
2011 2011 2011 2011 2011 2011 2011 2011 2011 
2011 2011 2011 2011 2011 2011 2011 2011 2011 
2011 2011 2011 2011 2011 2011 2011 2011 2011 
2011 2011 2011 2011 2011 2011 2011 2011 2011 
2011 2011 2011 2011 2011 2011 2011 2011 2011 
2011 2011 2011 2011 2011 2011 2011 2011 2011 
2011 2011 2011 2011 2011 2011 2011 2011 2011 
2011 2011 2011 2011 2011 2011 2011 2011 2011 
2011 2011 2011 2011 2011 2011 2011 2011 2011 
2011 2011 2011 2011 2011 2011 2011 2011 2011 
2011 2011 2011 2011 2011 2011 2011 2011 2011 
2011 2011 2011 2011 2011 2011 2011 2011 2011 
2011 2011 2011 2011 2011 2011 2011 2011 2011 
2011 2011 2011 2011 2011 2011 2011 2011 2011 
2011 2011 2011 2011 2011 2011 2011 2011 2011 
2011 2011 2011 2011 2011 2011 2011 2011 2011 
2011 2011 2011 2011 2011 2011 2011 2011 2011 
2011 2011 2011 2011 2011 2011 2011 2011 2011 
2011 2011 2011 2011 2011 2011 2011 2011 2011 
2011 2011 2011 2011 2011 2011 2011 2011 2011 
2011 2011 2011 2011 2011 2011 2011 2011 2011 
2011 2011 2011 2011 2011 2011 2011 2011 2011 
2011 2011 2011 2011 2011 2011 2011 2011 2011 
2011 2011 2011 2011 2011 2011 2011 2011 2011 
2011 2011 2011 2011 2011 2011 2011 2011 2011 
2011 2011 2011 2011 2011 2011 2011 2011 2011 
2011 2011 2011 2011 2011 2011 2011 2011 2011 
2011 2011 2011 2011 2011 2011 2011 2011 2011 
2011 2011 2011 2011 2011 2011 2011 2011 2011 
2011 2011 2011 2011 2011 2011 2011 2011 2011 
2011 2011 2011 2011 2011 2011 2011 2011 2011 
2011 2011 2011 2011 2011 2011 2011 2011 2011 
2011 2011 2011 2011 2011 2011 2011 2011 2011 
2011 2011 2011 2011 2011 2011 2011 2011 2011 
2011 2011 2011 2011 2011 2011 2011 2011 2011 
2011 2011 2011 2011 2011 2011 2011 2011 2011 
2011 2011 2011 2011 2011 2011 2011 2011 2011 
2011 2011 2011 2011 2011 2011 2011 2011 2011 
2011 2011 2011 2011 2011 2011 2011 2011 2011 
2011 2011 2011 2011 2011 2011 2011 2011 2011 
2011 2011 2011 2011 2011 2011 2011 2011 2011 
2011 2011 2011 2011 2011 2011 2011 2011 2011 
2011 2011 2011 2011 2011 2011 2011 2011 2011 
2011 2011 2011 2011 2011 2011 2011 2011 2011 
2011 2011 2011 2011 2011 2011 2011 2011 2011 
2011 2011 2011 2011 2011 2011 2011 2011 2011 
2011 2011 2011 2011 2011 2011 2011 2011 2011 
2011 2011 2011 2011 2011 2011 2011 2011 2011 
2011 2011 2011 2011 2011 2011 2011 2011 2011 
2011 2011 2011 2011 2011 2011 2011 2011 2011 
2011 2011 2011 2011 2011 2011 2011 2011 2011 
2011 2011 2011 2011 2011 2011 2011 2011 2011 
2011 2011 2011 2011 2011 2011 2011 2011 2011 
2011 2011 2011 2011 2011 2011 2011 2011 2011 
2011 2011 2011 2011 2011 2011 2011 2011 2011 
2011 2011 2011 2011 2011 2011 2011 2011 2011 
2011 2011 2011 2011 2011 2011 2011 2011 2011 
2011 2011 2011 2011 2011 2011 2011 2011 2011 
2011 2011 2011 2011 2011 2011 2011 2011 2011 
2011 2011 2011 2011 2011 2011 2011 2011 2011 
2011 2011 2011 2011 2011 2011 2011 2011 2011 
2011 2011 2011 2011 2011 2011 2011 2011 2011 
2011 2011 2011 2011 2011 2011 2011 2011 2011 
2011 2011 2011 2011 2011 2011 2011 2011 2011 
2011 2011 2011 2011 2011 2011 2011 2011 2011 
2011 2011 2011 2011 2011 2011 2011 2011 2011 
2011 2011 2011 2011 2011 2011 2011 2011 2011 
2011 2011 2011 2011 2011 2011 2011 2011 2011 
2011 2011 2011 2011 2011 2011 2011 2011 2011 
2011 2011 2011 2011 2011 2011 2011 2011 2011 
2011 2011 2011 2011 2011 2011 2011 2011 2011 
2011 2011 2011 2011 2011 2011 2011 2011 2011 
2011 2011 2011 2011 2011 2011 2011 2011 2011 
2011 2011 2011 2011 2011 2011 2011 2011 2011 
2011 2011 2011 2011 2011 2011 2011 2011 2011 
2011 2011 2011 2011 2011 2011 2011 2011 2011 
2011 2011 2011 2011 2011 2011 2011 2011 2011 
2011 2011 2011 2011 2011 2011 2011 2011 2011 
2011 2011 2011 2011 2011 2011 2011 2011 2011 
2011 2011 2011 2011 2011 2011 2011 2011 2011 
2011 2011 2011 2011 2011 2011 2011 2011 2011 
2011 2011 2011 2011 2011 2011 2011 2011 2011 
2011 2011 2011 2011 2011 2011 2011 2011 2011 
2011 2011 2011 2011 2011 2011 2011 2011 2011 
2011 2011 2011 2011 2011 2011 2011 2011 2011 
2011 2011 2011 2011 2011 2011 2011 2011 2011 
2011 2011 2011 2011 2011 2011 2011 2011 2011 
2011 2011 2011 2011 2011 2011 2011 2011 2011 
2011 2011 2011 2011 2011 2011 2011 2011 2011 
2011 2011 2011 2011 2011 2011 2011 2011 2011 
2011 2011 2011 2011 2011 2011 2011 2011 2011 
2011 2011 2011 2011 2011 2011 2011 2011 2011 
2011 2011 2011 2011 2011 2011 2011 2011 2011 
2011 2011 2011 2011 2011 2011 2011 2011 2011 
2011 2011 2011 2011 2011 2011 2011 2011 2011 
2011 2011 2011 2011 2011 2011 2011 2011 2011 
2011 2011 2011 2011 2011 2011 2011 2011 2011 
2011 2011 2011 2011 2011 2011 2011 2011 2011 
2011 2011 2011 2011 2011 2011 2011 2011 2011 
2011 2011 2011 2011 2011 2011 2011 2011 2011 
2011 2011 2011 2011 2011 2011 2011 2011 2011 
2011 2011 2011 2011 2011 2011 2011 2011 2011 
2011 2011 2011 2011 2011 2011 2011 2011 2011 
2011 2011 2011 2011 2011 2011 2011 2011 2011 
2011 2011 2011 2011 2011 2011 2011 2011 2011 
2011 2011 2011 2011 2011 2011 2011 2011 2011 
2011 2011 2011 2011 2011 2011 2011 2011 2011 
2011 2011 2011 2011 2011 2011 2011 2011 2011 
2011 2011 2011 2011 2011 2011 2011 2011 2011 
2011 2011 2011 2011 2011 2011 2011 2011 2011 
2011 2011 2011 2011 2011 2011 2011 2011 2011 
2011 2011 2011 2011 2011 2011 2011 2011 2011 
2011 2011 2011 2011 2011 2011 2011 2011 2011 
2011 2011 2011 2011 2011 2011 2011 2011 2011 
2011 2011 2011 2011 2011 2011 2011 2011 2011 
2011 2011 2011 2011 2011 2011 2011 2011 2011 
2011 2011 2011 2011 2011 2011 2011 2011 2011 
2011 2011 2011 2011 2011 2011 2011 2011 2011 
2011 2011 2011 2011 2011 2011 2011 2011 2011 
2011 2011 2011 2011 2011 2011 2011 2011 2011 
2011 2011 2011 2011 2011 2011 2011 2011 2011 
2011 2011 2011 2011 2011 2011 2011 2011 2011 
2011 2011 2011 2011 2011 2011 2011 2011 2011 
2011 2011 2011 2011 2011 2011 2011 2011 2011 
2011 2011 2011 2011 2011 2011 2011 2011 2011 
2011 2011 2011 2011 2011 2011 2011 2011 2011 
2011 2011 2011 2011 2011 2011 2011 2011 2011 
2011 2011 2011 2011 2011 2011 2011 2011 2011 
2011 2011 2011 2011 2011 2011 2011 2011 2011 
2011 2011 2011 2011 2011 2011 2011 2011 2011 
2011 2011 2011 2011 2011 2011 2011 2011 2011 
2011 2011 2011 2011 2011 2011 2011 2011 2011 
2011 2011 2011 2011 2011 2011 2011 2011 2011 
2011 2011 2011 2011 2011 2011 2011 2011 2011 
2011 2011 2011 2011 2011 2011 2011 2011 2011 
2011 2011 2011 2011 2011 2011 2011 2011 2011 
2011 2011 2011 2011 2011 2011 2011 2011 2011 
2011 2011 2011 2011 2011 2011 2011 2011 2011 
2011 2011 2011 2011 2011 2011 2011 2011 2011 
2011 2011 2011 2011 2011 2011 2011 2011 2011 
2011 2011 2011 2011 2011 2011 2011 2011 2011 
2011 2011 2011 2011 2011 2011 2011 2011 2011 
2011 2011 2011 2011 2011 2011 2011 2011 2011 
2011 2011 2011 2011 2011 2011 2011 2011 2011 
2011 2011 2011 2011 2011 2011 2011 2011 2011 
2011 2011 2011 2011 2011 2011 2011 2011 2011 
2011 2011 2011 2011 2011 2011 2011 2011 2011 
2011 2011 2011 2011 2011 2011 2011 2011 2011 
2011 2011 2011 2011 2011 2011 2011 2011 2011 
2011 2011 2011 2011 2011 2011 2011 2011 2011 
2011 2011 2011 2011 2011 2011 2011 2011 2011 
2011 2011 2011 2011 2011 2011 2011 2011 2011 
2011 2011 2011 2011 2011 2011 2011 2011 2011 
2011 2011 2011 2011 2011 2011 2011 2011 2011 
2011 2011 2011 2011 2011 2011 2011 2011 2011 
2011 2011 2011 2011 2011 2011 2011 2011 2011 
2011 2011 2011 2011 2011 2011 2011 2011 2011 
2011 2011 2011 2011 2011 2011 2011 2011 2011 
2011 2011 2011 2011 2011 2011 2011 2011 2011 
2011 2011 2011 2011 2011 2011 2011 2011 2011 
2011 2011 2011 2011 2011 2011 2011 2011 2011 
2011 2011 2011 2011 2011 2011 2011 2011 2011 
2011 2011 2011 2011 2011 2011 2011 2011 2011 
2011 2011 2011 2011 2011 2011 2011 2011 2011 
2011 2011 2011 2011 2011 2011 2011 2011 2011 
2011 2011 2011 2011 2011 2011 2011 2011 2011 
2011 2011 2011 2011 2011 2011 2011 2011 2011 
2011 2011 2011 2011 2011 2011 2011 2011 2011 
2011 2011 2011 2011 2011 2011 2011 2011 2011 
2011 2011 2011 2011 2011 2011 2011 2011 2011 
2011 2011 2011 2011 2011 2011 2011 2011 2011 
2011 2011 2011 2011 2011 2011 2011 2011 2011 
2011 2011 2011 2011 2011 2011 2011 2011 2011 
2011 2011 2011 2011 2011 2011 2011 2011 2011 
2011 2011 2011 2011 2011 2011 2011 2011 2011 
2011 2011 2011 2011 2011 2011 2011 2011 2011 
2011 2011 2011 2011 2011 2011 2011 2011 2011 
2011 2011 2011 2011 2011 2011 2011 2011 2011 
2011 2011 2011 2011 2011 2011 2011 2011 2011 
2011 2011 2011 2011 2011 2011 2011 2011 2011 
2011 2011 2011 2011 2011 2011 2011 2011 2011 
2011 2011 2011 2011 2011 2011 2011 2011 2011 
2011 2011 2011 2011 2011 2011 2011 2011 2011 
2011 2011 2011 2011 2011 2011 2011 2011 2011 
2011 2011 2011 2011 2011 2011 2011 2011 2011 
2011 2011 2011 2011 2011 2011 2011 2011 2011 
2011 2011 2011 2011 2011 2011 2011 2011 2011 
2011 2011 2011 2011 2011 2011 2011 2011 2011 
2011 2011 2011 2011 2011 2011 2011 2011 2011 
2011 2011 2011 2011 2011 2011 2011 2011 2011 
2011 2011 2011 2011 2011 2011 2011 2011 2011 
2011 2011 2011 2011 2011 2011 2011 2011 2011 
2011 2011 2011 2011 2011 2011 2011 2011 2011 
2011 2011 2011 2011 2011 2011 2011 2011 2011 
2011 2011 2011 2011 2011 2011 2011 2011 2011 
2011 2011 2011 2011 2011 2011 2011 2011 2011 
2011 2011 2011 2011 2011 2011 2011 2011 2011 
2011 2011 2011 2011 2011 2011 2011 2011 2011 
2011 2011 2011 2011 2011 2011 2011 2011 2011 
2011 2011 2011 2011 2011 2011 2011 2011 2011 
2011 2011 2011 2011 2011 2011 2011 2011 2011 
2011 2011 2011 2011 2011 2011 2011 2011 2011 
2011 2011 2011 2011 2011 2011 2011 2011 2011 
2011 2011 2011 2011 2011 2011 2011 2011 2011 
2011 2011 2011 2011 2011 2011 2011 2011 2011 
2011 2011 2011 2011 2011 2011 2011 2011 2011 
2011 2011 2011 2011 2011 2011 2011 2011 2011 
2011 2011 2011 2011 2011 2011 2011 2011 2011 
2011 2011 2011 2011 2011 2011 2011 2011 2011 
2011 2011 2011 2011 2011 2011 2011 2011 2011 
2011 2011 2011 2011 2011 2011 2011 2011 2011 
2011 2011 2011 2011 2011 2011 2011 2011 2011 
2011 2011 2011 2011 2011 2011 2011 2011 2011 
2011 2011 2011 2011 2011 2011 2011 2011 2011 
2011 2011 2011 2011 2011 2011 2011 2011 2011 
2011 2011 2011 2011 2011 2011 2011 2011 2011 
2011 2011 2011 2011 2011 2011 2011 2011 2011 