# vtk DataFile Version 4.0
vtk output
ASCII
DATASET POLYDATA
POINTS 1886 float
55.0411 -3.31365 -2.04322 55.1995 -3.46436 -1.77405 55.4417 -3.59245 -2.09713 
54.7519 -3.46846 -1.86439 54.858 -3.76375 -2.29292 50.9223 -4.23787 1.82209 
51.0061 -4.37617 2.16594 51.1745 -4.3022 1.85134 50.7549 -4.71 1.81091 
52.8997 -4.27522 0.797633 52.9746 -4.4209 1.13373 53.1398 -4.36149 0.817624 
52.8444 -4.62131 0.888134 51.0615 -4.22504 1.29453 51.3828 -4.63853 1.13119 
50.6616 -4.57922 1.03522 53.0662 -4.29928 0.281121 53.4389 -4.65888 0.276275 
52.7167 -4.70484 0.0307703 51.0014 -4.40081 0.741381 56.7441 -4.24908 -1.05701 
57.1482 -4.54564 -0.672904 57.3447 -4.54985 -1.17813 55.8762 -4.12498 -0.963108 
56.3063 -4.48005 -0.497023 54.8738 -3.91149 -1.25208 55.2656 -4.48109 -0.486843 
53.7682 -4.18093 -1.27613 54.3036 -4.49132 -0.600223 53.1735 -4.57566 -0.263712 
53.522 -4.58287 -0.877482 56.9413 -4.42474 -1.58733 56.5106 -4.5572 -2.17008 
56.0246 -4.00233 -1.67686 54.1574 -3.85287 -1.87461 52.8361 -4.62197 -1.52976 
53.2302 -4.21532 -1.94613 52.6045 -4.48627 -2.04096 55.67 -4.31759 -2.48227 
54.7923 -4.46512 -2.73898 53.8269 -4.32945 -2.52898 52.832 -4.51206 -2.38157 
57.0201 -4.30916 -4.09538 57.2321 -4.58768 -3.6908 57.2597 -4.66812 -4.32821 
56.6075 -4.71386 -4.13566 56.9415 -4.60477 -4.52637 51.1917 -4.79575 1.86027 
58.7758 -5.18451 0.919074 58.9591 -5.73185 1.53697 59.3319 -5.78566 1.09006 
57.8692 -5.1167 0.724776 58.1456 -5.56989 1.29989 57.4285 -5.59244 1.06833 
53.2092 -4.80804 0.86348 51.9963 -5.13875 0.694965 51.9577 -5.66031 1.35554 
52.523 -5.52328 0.980595 50.842 -5.58371 1.60134 50.3029 -5.41069 1.21337 
58.9919 -5.43452 0.487078 58.5939 -5.55962 -0.130656 58.2989 -5.03631 0.176701 
57.0927 -5.38255 0.650735 57.0811 -4.94194 0.00168457 55.7814 -5.00671 0.0092638 
56.2659 -5.49958 0.500296 54.7487 -5.01664 -0.0169921 55.2491 -5.55136 0.494323 
53.7761 -4.8323 -0.290394 54.0442 -5.37121 0.501683 52.9117 -5.29237 0.676253 
51.9749 -5.1738 -0.223254 50.9025 -4.84214 0.105735 50.1247 -5.23188 0.469332 
49.9833 -5.18498 -0.306294 49.6285 -5.74774 0.156641 57.8512 -4.94534 -0.847769 
58.2946 -5.6242 -0.953702 52.9286 -4.88534 -0.829724 52.3071 -5.34332 -0.773338 
52.0054 -5.55844 -0.743403 51.0879 -5.15318 -0.784933 51.5846 -5.48089 -0.896757 
50.2863 -5.17398 -0.951052 49.6121 -5.69461 -0.869792 57.9176 -5.06069 -2.00576 
58.5675 -5.72625 -2.13162 57.1972 -4.7929 -1.98023 52.1908 -4.99478 -2.28965 
52.2179 -5.32916 -1.45937 50.7835 -5.55451 -1.47653 51.6199 -5.60334 -1.98781 
49.9448 -5.62537 -1.58331 57.8711 -5.07654 -3.03745 58.3395 -5.67659 -3.06406 
56.9942 -4.81578 -3.10501 56.0816 -4.88015 -3.00279 55.1453 -4.85094 -3.10049 
54.2434 -4.98776 -3.27527 53.0544 -4.96385 -2.97596 52.1784 -5.22416 -3.0648 
51.5003 -5.51187 -2.75539 57.9269 -5.65651 -3.45616 57.4899 -5.32676 -3.90785 
56.0219 -4.99294 -3.85337 55.1381 -5.21566 -3.86638 54.5432 -5.49521 -3.94968 
54.0337 -5.66542 -3.59829 52.9253 -5.71456 -3.35711 51.7317 -5.72395 -3.37917 
57.0986 -5.05909 -4.94487 57.2479 -5.4231 -4.81392 56.6627 -5.44461 -4.86207 
55.8305 -5.40795 -4.47015 55.2005 -5.81937 -4.36062 57.0564 -5.51041 -5.21713 
58.9275 -6.25481 2.0044 59.0409 -6.49961 2.14351 59.2999 -6.23996 1.77131 
58.7864 -6.54077 2.07 59.3399 -6.48505 1.2583 58.4417 -6.57322 1.67025 
56.6652 -5.91845 1.00563 57.1753 -6.38882 1.51782 55.74 -6.04907 0.980627 
56.1496 -6.46857 1.34679 54.77 -6.06293 0.990444 55.2716 -6.6851 1.48433 
53.7664 -6.01854 0.99891 54.2586 -6.52786 1.478 52.9437 -5.87052 1.07548 
53.1537 -6.41573 1.46455 52.1963 -6.52427 1.61457 51.1205 -6.54218 1.58827 
49.835 -5.91866 0.840624 50.0472 -6.47432 1.32638 49.4285 -6.52724 0.826297 
58.9534 -6.44572 0.581642 58.3735 -6.40125 -0.0611488 49.2904 -6.36045 -0.0210601 
57.9659 -6.46259 -0.461082 58.1785 -6.08353 -1.16395 57.8064 -6.6134 -0.774264 
51.6936 -5.70798 -1.31647 49.2564 -6.42058 -0.887463 59.0623 -6.18958 -2.03039 
58.7054 -6.46247 -1.67404 59.1818 -6.47902 -2.01516 58.0657 -6.45919 -1.1383 
50.9216 -5.84624 -2.26767 50.0602 -5.98518 -2.21602 49.4389 -6.27682 -1.78588 
59.0266 -6.47092 -2.26053 58.7446 -6.51938 -2.87522 52.8388 -6.16037 -3.11681 
53.3494 -6.35723 -2.93092 52.9921 -6.41153 -2.73472 52.5605 -6.76175 -3.04373 
50.9889 -5.89624 -3.086 50.305 -6.20054 -2.95413 49.6973 -6.59262 -2.70458 
58.2246 -6.45923 -3.4297 57.4285 -6.50403 -3.6087 56.95 -6.01431 -4.46257 
56.6444 -6.63368 -3.91437 54.8036 -5.99025 -4.06933 55.4153 -6.39297 -4.19405 
54.9263 -6.45868 -3.74578 54.0562 -6.36559 -3.34241 51.982 -6.43239 -3.59273 
50.952 -6.34358 -3.46604 50.2464 -6.7848 -3.28314 57.0178 -5.74844 -5.06564 
56.0606 -6.21666 -4.44975 51.8485 -7.15652 2.73262 51.9191 -7.45523 3.3931 
52.5144 -7.46057 2.99677 51.0403 -7.27357 2.74534 51.1255 -7.65918 3.51583 
50.5284 -7.64618 2.99902 59.0271 -6.66459 1.77996 57.7092 -7.05335 2.04024 
57.8818 -7.74014 2.59133 58.3549 -7.58106 2.045 56.9159 -7.12986 1.91113 
57.0925 -7.62293 2.32884 56.3316 -7.86955 1.78248 54.6728 -7.10362 1.95067 
55.1944 -7.75473 2.28871 55.5401 -7.67547 1.67409 53.771 -6.98959 1.96536 
54.2809 -7.6631 2.45434 52.7551 -6.98464 2.12207 53.3424 -7.49717 2.54586 
51.8566 -6.8585 1.95498 51.086 -7.08539 2.08962 50.4112 -7.52397 2.30353 
58.9484 -6.85942 1.1856 58.5999 -7.60411 1.04002 56.1369 -7.17739 1.59081 
50.1937 -7.26964 1.68363 48.9526 -7.09262 0.656372 49.3082 -7.37631 1.41548 
48.675 -7.79552 1.24001 58.2535 -7.39333 0.251884 57.9871 -6.96001 -0.00769159 
57.7902 -7.49384 -0.364982 48.9313 -6.97633 -0.300161 48.5964 -7.6604 0.255934 
57.9634 -7.52143 -0.664421 58.245 -7.66105 -1.17213 58.0901 -7.04311 -1.01761 
48.9489 -6.95841 -1.32983 48.6096 -7.62929 -0.788191 59.0713 -6.75643 -2.02973 
58.7526 -7.30732 -2.12843 53.0787 -6.95054 -2.34383 53.5287 -7.40485 -2.12458 
53.2302 -7.72507 -1.73519 52.6811 -7.52769 -2.11672 49.1289 -7.0167 -2.21486 
48.6279 -7.72131 -1.90856 59.072 -7.71788 -2.82722 59.2113 -7.56221 -3.11881 
59.0568 -7.26294 -2.9264 56.7154 -7.10252 -3.15005 57.3177 -7.36946 -3.10742 
56.7674 -7.76544 -2.75069 56.1939 -7.54552 -2.63507 55.8922 -7.19486 -2.97905 
55.3209 -7.68991 -2.47923 54.9285 -7.02887 -3.11324 54.2972 -7.49617 -2.3826 
53.8524 -6.96202 -2.72877 52.5028 -7.59715 -2.83574 49.9462 -7.01216 -3.03624 
50.2323 -7.61208 -3.28497 49.6223 -7.34761 -2.80521 48.9687 -7.60981 -2.59576 
58.7618 -7.38743 -3.35205 57.8064 -7.55768 -3.44409 55.8936 -6.82291 -3.71727 
52.0998 -7.0162 -3.92975 52.3568 -7.62635 -3.84905 51.5963 -7.28966 -4.06571 
50.9467 -7.30153 -3.72015 51.7659 -7.74552 -4.37043 51.8766 -7.96822 3.80879 
52.0606 -8.80088 4.33246 52.5594 -8.39 3.8513 51.077 -8.07228 4.03913 
51.0568 -8.5985 4.31792 50.481 -8.44724 4.0605 57.8911 -8.25769 3.05173 
58.0606 -8.51466 3.21181 58.2855 -8.24419 2.81937 57.6973 -8.71707 2.93288 
53.695 -8.08233 2.95592 53.898 -8.51291 3.3365 54.3643 -8.42547 3.03122 
52.8788 -7.97371 3.24772 53.325 -8.48229 3.55962 49.7429 -8.00626 2.76728 
50.113 -8.20006 3.53805 48.9587 -8.25097 2.79038 49.0666 -8.68484 3.52451 
48.4607 -8.6227 3.02636 58.467 -8.52848 1.91414 57.2661 -8.28262 2.73213 
55.8299 -7.96198 2.03192 56.1986 -8.3697 2.51706 55.0987 -8.3385 2.69961 
49.7211 -7.77099 1.98761 49.0896 -7.95952 2.06801 48.4399 -8.37705 2.12409 
58.5689 -8.57534 0.988432 55.9907 -8.10789 1.20661 56.1491 -8.46733 1.06092 
55.9763 -8.30477 1.39652 55.852 -8.44758 1.05402 48.3426 -8.47668 0.878747 
58.2893 -8.55139 0.306062 57.9839 -8.01777 -0.0227834 56.0112 -8.62659 0.803773 
48.4659 -8.31328 -0.170583 57.9651 -8.02921 -0.960273 57.7453 -8.64937 -0.306934 
57.467 -8.69715 -1.00902 48.4747 -8.49988 -1.05027 57.9425 -8.67728 -1.57756 
58.3382 -8.26738 -1.79375 54.6764 -8.07909 -1.93707 55.3608 -8.58258 -2.17639 
54.9806 -8.7585 -1.72831 54.1583 -8.54988 -1.43537 53.8756 -7.83194 -1.85806 
53.1431 -8.32991 -1.4296 52.5433 -8.49004 -1.99288 48.4595 -8.66879 -1.91952 
58.9555 -7.95483 -3.17883 58.563 -8.37127 -2.7551 57.1761 -7.96522 -3.09128 
56.5913 -8.38989 -2.95432 55.9775 -8.34503 -2.60085 52.5446 -8.46267 -3.05761 
49.8675 -7.88193 -3.08169 49.2959 -8.02579 -3.06265 48.6301 -8.42585 -2.74516 
58.1051 -8.43968 -3.43004 56.9672 -8.68788 -3.42375 52.4521 -8.73781 -3.97096 
51.1856 -7.93337 -4.19459 50.6462 -8.32422 -3.89917 49.8451 -8.61707 -3.50984 
48.9846 -8.70661 -3.33651 51.9111 -8.50626 -4.50721 51.1856 -8.59408 -4.42407 
53.7446 -9.254 4.80672 54.0298 -9.52147 5.18561 54.2549 -9.56612 4.71467 
53.7659 -9.65833 5.00228 54.0598 -8.95998 3.90475 54.6306 -9.5098 3.94298 
53.0561 -9.50953 4.60851 53.0722 -8.85017 4.21624 52.2308 -9.6614 4.64301 
51.2795 -9.32967 4.65375 49.6466 -8.8915 4.03934 50.1254 -9.3995 4.52579 
49.0647 -9.11946 4.01549 49.2109 -9.48062 4.27553 48.5978 -9.6651 3.96998 
58.1596 -8.71278 2.85025 55.6942 -9.05376 3.00523 55.8906 -9.84027 3.29639 
56.3883 -9.53531 2.81432 54.8971 -8.98899 3.26544 55.1937 -9.64211 3.52803 
47.9559 -9.0148 2.69421 48.172 -9.29288 3.40086 47.6876 -9.71076 3.03194 
57.9411 -9.19528 2.1704 57.0437 -9.31525 2.46821 57.446 -9.86025 1.82917 
47.9493 -8.96056 1.73129 47.5755 -9.61081 2.26925 57.9629 -9.74623 1.42686 
58.3442 -9.24215 1.09825 56.0183 -8.70315 0.890566 48.0526 -9.15641 0.893396 
47.6834 -9.61146 1.32956 58.1463 -9.40976 0.350687 58.0181 -9.10577 -0.037896 
57.6174 -9.73469 0.0462429 53.7015 -9.15393 -0.0735713 54.3237 -9.56977 -0.278273 
53.8513 -9.67732 0.376343 53.1995 -9.34835 0.499189 52.7343 -9.04027 -0.100283 
52.3069 -9.41207 0.486061 51.9516 -9.18379 -0.210855 51.6223 -9.7039 0.231381 
48.3655 -9.20408 -0.0037089 48.0218 -9.83441 0.571213 57.1442 -9.296 -0.670418 
56.9558 -9.19536 -1.04184 56.7964 -9.73066 -0.968132 53.9243 -8.97666 -0.80592 
54.5142 -9.54587 -1.0614 52.9272 -8.87912 -0.939237 52.1803 -9.09218 -0.769526 
51.6189 -9.70005 -0.826771 48.4861 -9.51086 -1.05463 58.0559 -9.00076 -2.36568 
57.5916 -9.34937 -1.90388 57.0543 -9.6998 -1.40854 55.3212 -9.4603 -2.16995 
54.8761 -9.45844 -1.63941 52.1179 -9.43791 -1.55281 52.3984 -9.41506 -2.37469 
[...]
CELL_DATA 3772
SCALARS scalars float
LOOKUP_TABLE default
2034 2034 2034 2034 2034 2034 2034 2034 2034 
2034 2034 2034 2034 2034 2034 2034 2034 2034 
2034 2034 2034 2034 2034 2034 2034 2034 2034 
2034 2034 2034 2034 2034 2034 2034 2034 2034 
2034 2034 2034 2034 2034 2034 2034 2034 2034 
2034 2034 2034 2034 2034 2034 2034 2034 2034 
2034 2034 2034 2034 2034 2034 2034 2034 2034 
2034 2034 2034 2034 2034 2034 2034 2034 2034 
2034 2034 2034 2034 2034 2034 2034 2034 2034 
2034 2034 2034 2034 2034 2034 2034 2034 2034 
2034 2034 2034 2034 2034 2034 2034 2034 2034 
2034 2034 2034 2034 2034 2034 2034 2034 2034 
2034 2034 2034 2034 2034 2034 2034 2034 2034 
2034 2034 2034 2034 2034 2034 2034 2034 2034 
2034 2034 2034 2034 2034 2034 2034 2034 2034 
2034 2034 2034 2034 2034 2034 2034 2034 2034 
2034 2034 2034 2034 2034 2034 2034 2034 2034 
2034 2034 2034 2034 2034 2034 2034 2034 2034 
2034 2034 2034 2034 2034 2034 2034 2034 2034 
2034 2034 2034 2034 2034 2034 2034 2034 2034 
2034 2034 2034 2034 2034 2034 2034 2034 2034 
2034 2034 2034 2034 2034 2034 2034 2034 2034 
2034 2034 2034 2034 2034 2034 2034 2034 2034 
2034 2034 2034 2034 2034 2034 2034 2034 2034 
2034 2034 2034 2034 2034 2034 2034 2034 2034 
2034 2034 2034 2034 2034 2034 2034 2034 2034 
2034 2034 2034 2034 2034 2034 2034 2034 2034 
2034 2034 2034 2034 2034 2034 2034 2034 2034 
2034 2034 2034 2034 2034 2034 2034 2034 2034 
2034 2034 2034 2034 2034 2034 2034 2034 2034 
2034 2034 2034 2034 2034 2034 2034 2034 2034 
2034 2034 2034 2034 2034 2034 2034 2034 2034 
2034 2034 2034 2034 2034 2034 2034 2034 2034 
2034 2034 2034 2034 2034 2034 2034 2034 2034 
2034 2034 2034 2034 2034 2034 2034 2034 2034 
2034 2034 2034 2034 2034 2034 2034 2034 2034 
2034 2034 2034 2034 2034 2034 2034 2034 2034 
2034 2034 2034 2034 2034 2034 2034 2034 2034 
2034 2034 2034 2034 2034 2034 2034 2034 2034 
2034 2034 2034 2034 2034 2034 2034 2034 2034 
2034 2034 2034 2034 2034 2034 2034 2034 2034 
2034 2034 2034 2034 2034 2034 2034 2034 2034 
2034 2034 2034 2034 2034 2034 2034 2034 2034 
2034 2034 2034 2034 2034 2034 2034 2034 2034 
2034 2034 2034 2034 2034 2034 2034 2034 2034 
2034 2034 2034 2034 2034 2034 2034 2034 2034 
2034 2034 2034 2034 2034 2034 2034 2034 2034 
2034 2034 2034 2034 2034 2034 2034 2034 2034 
2034 2034 2034 2034 2034 2034 2034 2034 2034 
2034 2034 2034 2034 2034 2034 2034 2034 2034 
2034 2034 2034 2034 2034 2034 2034 2034 2034 
2034 2034 2034 2034 2034 2034 2034 2034 2034 
2034 2034 2034 2034 2034 2034 2034 2034 2034 
2034 2034 2034 2034 2034 2034 2034 2034 2034 
2034 2034 2034 2034 2034 2034 2034 2034 2034 
2034 2034 2034 2034 2034 2034 2034 2034 2034 
2034 2034 2034 2034 2034 2034 2034 2034 2034 
2034 2034 2034 2034 2034 2034 2034 2034 2034 
2034 2034 2034 2034 2034 2034 2034 2034 2034 
2034 2034 2034 2034 2034 2034 2034 2034 2034 
2034 2034 2034 2034 2034 2034 2034 2034 2034 
2034 2034 2034 2034 2034 2034 2034 2034 2034 
2034 2034 2034 2034 2034 2034 2034 2034 2034 
2034 2034 2034 2034 2034 2034 2034 2034 2034 
2034 2034 2034 2034 2034 2034 2034 2034 2034 
2034 2034 2034 2034 2034 2034 2034 2034 2034 
2034 2034 2034 2034 2034 2034 2034 2034 2034 
2034 2034 2034 2034 2034 2034 2034 2034 2034 
2034 2034 2034 2034 2034 2034 2034 2034 2034 
2034 2034 2034 2034 2034 2034 2034 2034 2034 
2034 2034 2034 2034 2034 2034 2034 2034 2034 
2034 2034 2034 2034 2034 2034 2034 2034 2034 
2034 2034 2034 2034 2034 2034 2034 2034 2034 
2034 2034 2034 2034 2034 2034 2034 2034 2034 
2034 2034 2034 2034 2034 2034 2034 2034 2034 
2034 2034 2034 2034 2034 2034 2034 2034 2034 
2034 2034 2034 2034 2034 2034 2034 2034 2034 
2034 2034 2034 2034 2034 2034 2034 2034 2034 
2034 2034 2034 2034 2034 2034 2034 2034 2034 
2034 2034 2034 2034 2034 2034 2034 2034 2034 
2034 2034 2034 2034 2034 2034 2034 2034 2034 
2034 2034 2034 2034 2034 2034 2034 2034 2034 
2034 2034 2034 2034 2034 2034 2034 2034 2034 
2034 2034 2034 2034 2034 2034 2034 2034 2034 
2034 2034 2034 2034 2034 2034 2034 2034 2034 
2034 2034 2034 2034 2034 2034 2034 2034 2034 
2034 2034 2034 2034 2034 2034 2034 2034 2034 
2034 2034 2034 2034 2034 2034 2034 2034 2034 
2034 2034 2034 2034 2034 2034 2034 2034 2034 
2034 2034 2034 2034 2034 2034 2034 2034 2034 
2034 2034 2034 2034 2034 2034 2034 2034 2034 
2034 2034 2034 2034 2034 2034 2034 2034 2034 
2034 2034 2034 2034 2034 2034 2034 2034 2034 
2034 2034 2034 2034 2034 2034 2034 2034 2034 
2034 2034 2034 2034 2034 2034 2034 2034 2034 
2034 2034 2034 2034 2034 2034 2034 2034 2034 
2034 2034 2034 2034 2034 2034 2034 2034 2034 
2034 2034 2034 2034 2034 2034 2034 2034 2034 
2034 2034 2034 2034 2034 2034 2034 2034 2034 
2034 2034 2034 2034 2034 2034 2034 2034 2034 
2034 2034 2034 2034 2034 2034 2034 2034 2034 
2034 2034 2034 2034 2034 2034 2034 2034 2034 
2034 2034 2034 2034 2034 2034 2034 2034 2034 
2034 2034 2034 2034 2034 2034 2034 2034 2034 
2034 2034 2034 2034 2034 2034 2034 2034 2034 
2034 2034 2034 2034 2034 2034 2034 2034 2034 
2034 2034 2034 2034 2034 2034 2034 2034 2034 
2034 2034 2034 2034 2034 2034 2034 2034 2034 
2034 2034 2034 2034 2034 2034 2034 2034 2034 
2034 2034 2034 2034 2034 2034 2034 2034 2034 
2034 2034 2034 2034 2034 2034 2034 2034 2034 
2034 2034 2034 2034 2034 2034 2034 2034 2034 
2034 2034 2034 2034 2034 2034 2034 2034 2034 
2034 2034 2034 2034 2034 2034 2034 2034 2034 
2034 2034 2034 2034 2034 2034 2034 2034 2034 
2034 2034 2034 2034 2034 2034 2034 2034 2034 
2034 2034 2034 2034 2034 2034 2034 2034 2034 
2034 2034 2034 2034 2034 2034 2034 2034 2034 
2034 2034 2034 2034 2034 2034 2034 2034 2034 
2034 2034 2034 2034 2034 2034 2034 2034 2034 
2034 2034 2034 2034 2034 2034 2034 2034 2034 
2034 2034 2034 2034 2034 2034 2034 2034 2034 
2034 2034 2034 2034 2034 2034 2034 2034 2034 
2034 2034 2034 2034 2034 2034 2034 2034 2034 
2034 2034 2034 2034 2034 2034 2034 2034 2034 
2034 2034 2034 2034 2034 2034 2034 2034 2034 
2034 2034 2034 2034 2034 2034 2034 2034 2034 
2034 2034 2034 2034 2034 2034 2034 2034 2034 
2034 2034 2034 2034 2034 2034 2034 2034 2034 
2034 2034 2034 2034 2034 2034 2034 2034 2034 
2034 2034 2034 2034 2034 2034 2034 2034 2034 
2034 2034 2034 2034 2034 2034 2034 2034 2034 
2034 2034 2034 2034 2034 2034 2034 2034 2034 
2034 2034 2034 2034 2034 2034 2034 2034 2034 
2034 2034 2034 2034 2034 2034 2034 2034 2034 
2034 2034 2034 2034 2034 2034 2034 2034 2034 
2034 2034 2034 2034 2034 2034 2034 2034 2034 
2034 2034 2034 2034 2034 2034 2034 2034 2034 
2034 2034 2034 2034 2034 2034 2034 2034 2034 
2034 2034 2034 2034 2034 2034 2034 2034 2034 
2034 2034 2034 2034 2034 2034 2034 2034 2034 
2034 2034 2034 2034 2034 2034 2034 2034 2034 
2034 2034 2034 2034 2034 2034 2034 2034 2034 
2034 2034 2034 2034 2034 2034 2034 2034 2034 
2034 2034 2034 2034 2034 2034 2034 2034 2034 
2034 2034 2034 2034 2034 2034 2034 2034 2034 
2034 2034 2034 2034 2034 2034 2034 2034 2034 
2034 2034 2034 2034 2034 2034 2034 2034 2034 
2034 2034 2034 2034 2034 2034 2034 2034 2034 
2034 2034 2034 2034 2034 2034 2034 2034 2034 
2034 2034 2034 2034 2034 2034 2034 2034 2034 
2034 2034 2034 2034 2034 2034 2034 2034 2034 
2034 2034 2034 2034 2034 2034 2034 2034 2034 
2034 2034 2034 2034 2034 2034 2034 2034 2034 
2034 2034 2034 2034 2034 2034 2034 2034 2034 
2034 2034 2034 2034 2034 2034 2034 2034 2034 
2034 2034 2034 2034 2034 2034 2034 2034 2034 
2034 2034 2034 2034 2034 2034 2034 2034 2034 
2034 2034 2034 2034 2034 2034 2034 2034 2034 
2034 2034 2034 2034 2034 2034 2034 2034 2034 
2034 2034 2034 2034 2034 2034 2034 2034 2034 
2034 2034 2034 2034 2034 2034 2034 2034 2034 
2034 2034 2034 2034 2034 2034 2034 2034 2034 
2034 2034 2034 2034 2034 2034 2034 2034 2034 
2034 2034 2034 2034 2034 2034 2034 2034 2034 
2034 2034 2034 2034 2034 2034 2034 2034 2034 
2034 2034 2034 2034 2034 2034 2034 2034 2034 
2034 2034 2034 2034 2034 2034 2034 2034 2034 
2034 2034 2034 2034 2034 2034 2034 2034 2034 
2034 2034 2034 2034 2034 2034 2034 2034 2034 
2034 2034 2034 2034 2034 2034 2034 2034 2034 
2034 2034 2034 2034 2034 2034 2034 2034 2034 
2034 2034 2034 2034 2034 2034 2034 2034 2034 
2034 2034 2034 2034 2034 2034 2034 2034 2034 
2034 2034 2034 2034 2034 2034 2034 2034 2034 
2034 2034 2034 2034 2034 2034 2034 2034 2034 
2034 2034 2034 2034 2034 2034 2034 2034 2034 
2034 2034 2034 2034 2034 2034 2034 2034 2034 
2034 2034 2034 2034 2034 2034 2034 2034 2034 
2034 2034 2034 2034 2034 2034 2034 2034 2034 
2034 2034 2034 2034 2034 2034 2034 2034 2034 
2034 2034 2034 2034 2034 2034 2034 2034 2034 
2034 2034 2034 2034 2034 2034 2034 2034 2034 
2034 2034 2034 2034 2034 2034 2034 2034 2034 
2034 2034 2034 2034 2034 2034 2034 2034 2034 
2034 2034 2034 2034 2034 2034 2034 2034 2034 
2034 2034 2034 2034 2034 2034 2034 2034 2034 
2034 2034 2034 2034 2034 2034 2034 2034 2034 
2034 2034 2034 2034 2034 2034 2034 2034 2034 
2034 2034 2034 2034 2034 2034 2034 2034 2034 
2034 2034 2034 2034 2034 2034 2034 2034 2034 
2034 2034 2034 2034 2034 2034 2034 2034 2034 
2034 2034 2034 2034 2034 2034 2034 2034 2034 
2034 2034 2034 2034 2034 2034 2034 2034 2034 
2034 2034 2034 2034 2034 2034 2034 2034 2034 
2034 2034 2034 2034 2034 2034 2034 2034 2034 
2034 2034 2034 2034 2034 2034 2034 2034 2034 
2034 2034 2034 2034 2034 2034 2034 2034 2034 
2034 2034 2034 2034 2034 2034 2034 2034 2034 
2034 2034 2034 2034 2034 2034 2034 2034 2034 
2034 2034 2034 2034 2034 2034 2034 2034 2034 
2034 2034 2034 2034 2034 2034 2034 2034 2034 
2034 2034 2034 2034 2034 2034 2034 2034 2034 
2034 2034 2034 2034 2034 2034 2034 2034 2034 
2034 2034 2034 2034 2034 2034 2034 2034 2034 
2034 2034 2034 2034 2034 2034 2034 2034 2034 
2034 2034 2034 2034 2034 2034 2034 2034 2034 
2034 2034 2034 2034 2034 2034 2034 2034 2034 
2034 2034 2034 2034 2034 2034 2034 2034 2034 
2034 2034 2034 2034 2034 2034 2034 2034 2034 
2034 2034 2034 2034 2034 2034 2034 2034 2034 
2034 2034 2034 2034 2034 2034 2034 2034 2034 
2034 2034 2034 2034 2034 2034 2034 2034 2034 
2034 2034 2034 2034 2034 2034 2034 2034 2034 
2034 2034 2034 2034 2034 2034 2034 2034 2034 
2034 2034 2034 2034 2034 2034 2034 2034 2034 
2034 2034 2034 2034 2034 2034 2034 2034 2034 
2034 2034 2034 2034 2034 2034 2034 2034 2034 
2034 2034 2034 2034 2034 2034 2034 2034 2034 
2034 2034 2034 2034 2034 2034 2034 2034 2034 
2034 2034 2034 2034 2034 2034 2034 2034 2034 
2034 2034 2034 2034 2034 2034 2034 2034 2034 
2034 2034 2034 2034 2034 2034 2034 2034 2034 
2034 2034 2034 2034 2034 2034 2034 2034 2034 
2034 2034 2034 2034 2034 2034 2034 2034 2034 
2034 2034 2034 2034 2034 2034 2034 2034 2034 
2034 2034 2034 2034 2034 2034 2034 2034 2034 
2034 2034 2034 2034 2034 2034 2034 2034 2034 
2034 2034 2034 2034 2034 2034 2034 2034 2034 
2034 2034 2034 2034 2034 2034 2034 2034 2034 
2034 2034 2034 2034 2034 2034 2034 2034 2034 
2034 2034 2034 2034 2034 2034 2034 2034 2034 
2034 2034 2034 2034 2034 2034 2034 2034 2034 
2034 2034 2034 2034 2034 2034 2034 2034 2034 
2034 2034 2034 2034 2034 2034 2034 2034 2034 
2034 2034 2034 2034 2034 2034 2034 2034 2034 
2034 2034 2034 2034 2034 2034 2034 2034 2034 
2034 2034 2034 2034 2034 2034 2034 2034 2034 
2034 2034 2034 2034 2034 2034 2034 2034 2034 
2034 2034 2034 2034 2034 2034 2034 2034 2034 
2034 2034 2034 2034 2034 2034 2034 2034 2034 
2034 2034 2034 2034 2034 2034 2034 2034 2034 
2034 2034 2034 2034 2034 2034 2034 2034 2034 
2034 2034 2034 2034 2034 2034 2034 2034 2034 
2034 2034 2034 2034 2034 2034 2034 2034 2034 
2034 2034 2034 2034 2034 2034 2034 2034 2034 
2034 2034 2034 2034 2034 2034 2034 2034 2034 
2034 2034 2034 2034 2034 2034 2034 2034 2034 
2034 2034 2034 2034 2034 2034 2034 2034 2034 
2034 2034 2034 2034 2034 2034 2034 2034 2034 
2034 2034 2034 2034 2034 2034 2034 2034 2034 
2034 2034 2034 2034 2034 2034 2034 2034 2034 
2034 2034 2034 2034 2034 2034 2034 2034 2034 
2034 2034 2034 2034 2034 2034 2034 2034 2034 
2034 2034 2034 2034 2034 2034 2034 2034 2034 
2034 2034 2034 2034 2034 2034 2034 2034 2034 
2034 2034 2034 2034 2034 2034 2034 2034 2034 
2034 2034 2034 2034 2034 2034 2034 2034 2034 
2034 2034 2034 2034 2034 2034 2034 2034 2034 
2034 2034 2034 2034 2034 2034 2034 2034 2034 
2034 2034 2034 2034 2034 2034 2034 2034 2034 
2034 2034 2034 2034 2034 2034 2034 2034 2034 
2034 2034 2034 2034 2034 2034 2034 2034 2034 
2034 2034 2034 2034 2034 2034 2034 2034 2034 
2034 2034 2034 2034 2034 2034 2034 2034 2034 
2034 2034 2034 2034 2034 2034 2034 2034 2034 
2034 2034 2034 2034 2034 2034 2034 2034 2034 
2034 2034 2034 2034 2034 2034 2034 2034 2034 
2034 2034 2034 2034 2034 2034 2034 2034 2034 
2034 2034 2034 2034 2034 2034 2034 2034 2034 
2034 2034 2034 2034 2034 2034 2034 2034 2034 
2034 2034 2034 2034 2034 2034 2034 2034 2034 
2034 2034 2034 2034 2034 2034 2034 2034 2034 
2034 2034 2034 2034 2034 2034 2034 2034 2034 
2034 2034 2034 2034 2034 2034 2034 2034 2034 
2034 2034 2034 2034 2034 2034 2034 2034 2034 
2034 2034 2034 2034 2034 2034 2034 2034 2034 
2034 2034 2034 2034 2034 2034 2034 2034 2034 
2034 2034 2034 2034 2034 2034 2034 2034 2034 
2034 2034 2034 2034 2034 2034 2034 2034 2034 
2034 2034 2034 2034 2034 2034 2034 2034 2034 
2034 2034 2034 2034 2034 2034 2034 2034 2034 
2034 2034 2034 2034 2034 2034 2034 2034 2034 
2034 2034 2034 2034 2034 2034 2034 2034 2034 
2034 2034 2034 2034 2034 2034 2034 2034 2034 
2034 2034 2034 2034 2034 2034 2034 2034 2034 
2034 2034 2034 2034 2034 2034 2034 2034 2034 
2034 2034 2034 2034 2034 2034 2034 2034 2034 
2034 2034 2034 2034 2034 2034 2034 2034 2034 
2034 2034 2034 2034 2034 2034 2034 2034 2034 
2034 2034 2034 2034 2034 2034 2034 2034 2034 
2034 2034 2034 2034 2034 2034 2034 2034 2034 
2034 2034 2034 2034 2034 2034 2034 2034 2034 
2034 2034 2034 2034 2034 2034 2034 2034 2034 
2034 2034 2034 2034 2034 2034 2034 2034 2034 
2034 2034 2034 2034 2034 2034 2034 2034 2034 
2034 2034 2034 2034 2034 2034 2034 2034 2034 
2034 2034 2034 2034 2034 2034 2034 2034 2034 
2034 2034 2034 2034 2034 2034 2034 2034 2034 
2034 2034 2034 2034 2034 2034 2034 2034 2034 
2034 2034 2034 2034 2034 2034 2034 2034 2034 
2034 2034 2034 2034 2034 2034 2034 2034 2034 
2034 2034 2034 2034 2034 2034 2034 2034 2034 
2034 2034 2034 2034 2034 2034 2034 2034 2034 
2034 2034 2034 2034 2034 2034 2034 2034 2034 
2034 2034 2034 2034 2034 2034 2034 2034 2034 
2034 2034 2034 2034 2034 2034 2034 2034 2034 
2034 2034 2034 2034 2034 2034 2034 2034 2034 
2034 2034 2034 2034 2034 2034 2034 2034 2034 
2034 2034 2034 2034 2034 2034 2034 2034 2034 
2034 2034 2034 2034 2034 2034 2034 2034 2034 
2034 2034 2034 2034 2034 2034 2034 2034 2034 
2034 2034 2034 2034 2034 2034 2034 2034 2034 
2034 2034 2034 2034 2034 2034 2034 2034 2034 
2034 2034 2034 2034 2034 2034 2034 2034 2034 
2034 2034 2034 2034 2034 2034 2034 2034 2034 
2034 2034 2034 2034 2034 2034 2034 2034 2034 
2034 2034 2034 2034 2034 2034 2034 2034 2034 
2034 2034 2034 2034 2034 2034 2034 2034 2034 
2034 2034 2034 2034 2034 2034 2034 2034 2034 
2034 2034 2034 2034 2034 2034 2034 2034 2034 
2034 2034 2034 2034 2034 2034 2034 2034 2034 
2034 2034 2034 2034 2034 2034 2034 2034 2034 
2034 2034 2034 2034 2034 2034 2034 2034 2034 
2034 2034 2034 2034 2034 2034 2034 2034 2034 
2034 2034 2034 2034 2034 2034 2034 2034 2034 
2034 2034 2034 2034 2034 2034 2034 2034 2034 
2034 2034 2034 2034 2034 2034 2034 2034 2034 
2034 2034 2034 2034 2034 2034 2034 2034 2034 
2034 2034 2034 2034 2034 2034 2034 2034 2034 
2034 2034 2034 2034 2034 2034 2034 2034 2034 
2034 2034 2034 2034 2034 2034 2034 2034 2034 
2034 2034 2034 2034 2034 2034 2034 2034 2034 
2034 2034 2034 2034 2034 2034 2034 2034 2034 
2034 2034 2034 2034 2034 2034 2034 2034 2034 
2034 2034 2034 2034 2034 2034 2034 2034 2034 
2034 2034 2034 2034 2034 2034 2034 2034 2034 
2034 2034 2034 2034 2034 2034 2034 2034 2034 
2034 2034 2034 2034 2034 2034 2034 2034 2034 
2034 2034 2034 2034 2034 2034 2034 2034 2034 
2034 2034 2034 2034 2034 2034 2034 2034 2034 
2034 2034 2034 2034 2034 2034 2034 2034 2034 
2034 2034 2034 2034 2034 2034 2034 2034 2034 
2034 2034 2034 2034 2034 2034 2034 2034 2034 
2034 2034 2034 2034 2034 2034 2034 2034 2034 
2034 2034 2034 2034 2034 2034 2034 2034 2034 
2034 2034 2034 2034 2034 2034 2034 2034 2034 
2034 2034 2034 2034 2034 2034 2034 2034 2034 
2034 2034 2034 2034 2034 2034 2034 2034 2034 
2034 2034 2034 2034 2034 2034 2034 2034 2034 
2034 2034 2034 2034 2034 2034 2034 2034 2034 
2034 2034 2034 2034 2034 2034 2034 2034 2034 
2034 2034 2034 2034 2034 2034 2034 2034 2034 
2034 2034 2034 2034 2034 2034 2034 2034 2034 
2034 2034 2034 2034 2034 2034 2034 2034 2034 
2034 2034 2034 2034 2034 2034 2034 2034 2034 
2034 2034 2034 2034 2034 2034 2034 2034 2034 
2034 2034 2034 2034 2034 2034 2034 2034 2034 
2034 2034 2034 2034 2034 2034 2034 2034 2034 
2034 2034 2034 2034 2034 2034 2034 2034 2034 
2034 2034 2034 2034 2034 2034 2034 2034 2034 
2034 2034 2034 2034 2034 2034 2034 2034 2034 
2034 2034 2034 2034 2034 2034 2034 2034 2034 
2034 2034 2034 2034 2034 2034 2034 2034 2034 
2034 2034 2034 2034 2034 2034 2034 2034 2034 
2034 2034 2034 2034 2034 2034 2034 2034 2034 
2034 2034 2034 2034 2034 2034 2034 2034 2034 
2034 2034 2034 2034 2034 2034 2034 2034 2034 
2034 2034 2034 2034 2034 2034 2034 2034 2034 
2034 2034 2034 2034 2034 2034 2034 2034 2034 
2034 2034 2034 2034 2034 2034 2034 2034 2034 
2034 2034 2034 2034 2034 2034 2034 2034 2034 
2034 2034 2034 2034 2034 2034 2034 2034 2034 
2034 2034 2034 2034 2034 2034 2034 2034 2034 
2034 2034 2034 2034 2034 2034 2034 2034 2034 
2034 2034 2034 2034 2034 2034 2034 2034 2034 
2034 2034 2034 2034 2034 2034 2034 2034 2034 
2034 2034 2034 2034 2034 2034 2034 2034 2034 
2034 2034 2034 2034 2034 2034 2034 2034 2034 
2034 2034 2034 2034 2034 2034 2034 2034 2034 
2034 2034 2034 2034 2034 2034 2034 2034 2034 
2034 2034 2034 2034 2034 2034 2034 2034 2034 
2034 2034 2034 2034 2034 2034 2034 2034 2034 
2034 2034 2034 2034 2034 2034 2034 2034 2034 
2034 2034 2034 2034 2034 2034 2034 2034 2034 
2034 2034 2034 2034 2034 2034 2034 2034 2034 
2034 2034 2034 2034 2034 2034 2034 2034 2034 
2034 2034 2034 2034 2034 2034 2034 2034 2034 
2034 2034 2034 2034 2034 2034 2034 2034 2034 
2034 2034 2034 2034 2034 2034 2034 2034 2034 
2034 2034 2034 2034 2034 2034 2034 2034 2034 
2034 2034 2034 2034 2034 2034 2034 2034 2034 
2034 2034 2034 2034 2034 2034 2034 2034 2034 
2034 2034 2034 2034 2034 2034 2034 2034 2034 
2034 2034 2034 2034 2034 2034 2034 2034 2034 
2034 2034 2034 2034 2034 2034 2034 2034 2034 
2034 2034 2034 2034 2034 2034 2034 2034 2034 
2034 2034 2034 2034 2034 2034 2034 2034 2034 
2034 2034 2034 2034 2034 2034 2034 2034 2034 
2034 2034 2034 2034 2034 2034 2034 2034 2034 
2034 2034 2034 2034 2034 2034 2034 2034 2034 
2034 2034 2034 2034 2034 2034 2034 2034 2034 
2034 2034 2034 2034 2034 2034 2034 2034 2034 
2034 2034 2034 2034 2034 2034 2034 2034 2034 
2034 2034 2034 2034 2034 2034 2034 2034 2034 
2034 2034 2034 2034 2034 2034 2034 2034 2034 
2034 2034 2034 2034 2034 2034 2034 2034 2034 
2034 2034 2034 2034 2034 2034 2034 2034 2034 
2034 2034 2034 2034 2034 2034 2034 2034 2034 
2034 2034 2034 2034 2034 2034 2034 2034 2034 
2034 2034 2034 2034 2034 2034 2034 2034 2034 
2034 2034 2034 2034 2034 2034 2034 2034 2034 
2034 2034 2034 2034 2034 2034 2034 2034 2034 
2034 2034 2034 2034 2034 2034 2034 2034 2034 
2034 2034 2034 2034 2034 2034 2034 2034 2034 
2034 2034 2034 2034 2034 2034 2034 2034 2034 
2034 2034 2034 2034 2034 2034 2034 2034 2034 
2034 2034 2034 2034 2034 2034 2034 2034 2034 
2034 2034 2034 2034 2034 2034 2034 2034 2034 
2034 
