# vtk DataFile Version 4.0
vtk output
ASCII
DATASET POLYDATA
POINTS 15328 float
-6.31504 -44.1213 37.7864 -5.96423 -44.5238 38.2643 -5.54345 -44.4306 37.5945 
-7.18086 -44.1347 37.7056 -6.93856 -44.7019 38.4476 -7.60507 -44.6385 38.0389 
-5.94443 -44.1421 37.1608 -5.44658 -44.5781 36.9366 -6.69838 -44.0234 37.0945 
-7.92705 -44.3691 37.6222 -7.86011 -44.1165 37.0642 -8.99864 -44.172 36.9376 
-8.74638 -44.4311 37.4674 -9.77116 -44.2417 36.8698 -9.68585 -44.435 37.3619 
-10.263 -44.5121 37.1018 -6.02927 -44.5332 36.637 -7.06086 -44.5226 36.4149 
-8.29209 -44.5938 36.4134 -9.31455 -44.5881 36.5566 -10.1964 -44.6947 36.6659 
-3.93495 -45.2705 42.7106 -3.84915 -45.5577 43.2861 -3.41588 -45.4058 42.8667 
-4.3474 -45.5939 43.1107 -3.17468 -45.1359 41.9432 -2.79682 -45.5255 42.4498 
-2.35911 -45.4063 41.8542 -3.98298 -45.1711 41.886 -4.47964 -45.5223 42.3071 
-2.27793 -45.143 41.0474 -1.91806 -45.4696 41.4677 -1.5315 -45.5245 40.7803 
-3.12378 -44.9708 40.8455 -4.01543 -45.1115 40.9211 -4.52702 -45.5087 41.3217 
-2.07099 -45.0973 39.9304 -1.41121 -45.445 39.671 -2.95174 -44.9547 39.9651 
-3.96087 -44.9837 39.9344 -4.80899 -45.4739 40.5329 -5.04588 -45.2076 39.8304 
-5.42752 -45.6422 40.0926 -17.1253 -45.2696 39.7982 -17.0269 -45.4576 40.3177 
-16.6625 -45.5287 39.8062 -17.3758 -45.5146 40.1345 -2.05709 -45.1578 39.0099 
-1.52061 -45.4519 39.0393 -2.94178 -44.9682 38.9447 -3.96762 -44.953 38.9426 
-4.87288 -44.9905 39.1017 -5.95125 -45.4927 39.6003 -6.03433 -45.0216 38.9512 
-6.9331 -45.1582 38.9527 -6.71825 -45.5546 39.3788 -7.38801 -45.481 39.0103 
-16.9416 -45.1898 38.8414 -16.3747 -45.3738 38.8796 -17.5802 -45.4717 39.2581 
-1.84295 -45.5631 38.4788 -2.55903 -45.549 37.816 -2.78264 -45.1869 38.2182 
-3.87507 -45.0949 37.9607 -5.04773 -44.8423 38.2174 -8.34531 -44.9313 37.9639 
-7.87572 -45.2745 38.4608 -9.29597 -45.0064 37.9278 -8.75914 -45.5571 38.433 
-10.3079 -44.9779 37.7765 -9.77651 -45.5746 38.4454 -11.296 -45.1319 37.8082 
-10.7834 -45.537 38.4553 -12.3064 -45.1229 37.8214 -11.7579 -45.5242 38.4648 
-13.3016 -45.0982 37.8107 -12.765 -45.5223 38.4697 -14.2906 -45.0999 37.7787 
-13.7798 -45.5189 38.4479 -15.2969 -45.0908 37.8009 -14.7831 -45.5106 38.4091 
-16.2169 -45.0764 38.1108 -15.7136 -45.4711 38.4998 -16.7715 -45.1481 37.709 
-17.5907 -45.6953 37.9969 -3.34637 -45.6621 37.5013 -4.06782 -45.5435 37.3725 
-4.51807 -45.8541 37.0012 -4.80206 -45.0401 37.2714 -10.8445 -44.8858 37.0925 
-11.9009 -45.0637 36.9505 -12.8591 -44.9428 37.1185 -13.7456 -45.0403 36.8797 
-14.777 -45.0871 37.0384 -15.873 -45.1118 37.1514 -16.6062 -45.3764 36.9997 
-17.1273 -45.6183 37.2558 -5.24357 -45.2866 36.6507 -6.23218 -45.573 36.1959 
-6.90596 -45.1135 35.9522 -6.72198 -45.4963 35.8701 -7.65649 -45.0468 35.894 
-8.32224 -45.4157 35.9392 -9.02699 -45.6172 36.275 -10.039 -45.4916 36.4261 
-11.0028 -45.3234 36.5527 -11.9106 -45.5505 36.2442 -12.41 -45.6624 35.7869 
-12.8709 -45.1848 36.2451 -13.6324 -45.3997 36.0262 -14.3555 -45.6324 36.2992 
-15.2767 -45.6263 36.5288 -16.2101 -45.7405 36.5768 -7.29641 -45.5825 35.6515 
-7.96901 -45.7423 35.6127 -13.104 -45.8384 35.5794 -6.12712 -46.1416 46.7863 
-5.87857 -46.5358 47.3414 -5.3641 -46.3903 46.8565 -7.20882 -46.1182 46.8924 
-6.71322 -46.4897 47.5113 -8.16744 -46.2054 46.7412 -7.67431 -46.5142 47.4396 
-8.40656 -46.5871 47.142 -4.27382 -46.2014 45.8724 -3.75945 -46.7378 46.3111 
-3.51402 -46.4711 45.6932 -5.23797 -46.0904 46.0675 -4.60932 -46.637 46.5916 
-6.11438 -45.9872 45.8645 -6.95878 -45.9851 46.0231 -7.98482 -45.9979 46.0045 
-8.88881 -46.4388 46.6435 -9.09394 -46.1277 45.9722 -10.2502 -46.1526 45.8489 
-9.69752 -46.5084 46.4893 -11.2607 -46.1128 45.8453 -10.6954 -46.4995 46.4965 
-12.1945 -46.1616 45.7009 -11.6668 -46.4697 46.413 -12.4251 -46.5312 46.1263 
-3.99812 -46.0949 44.8844 -3.26963 -46.3934 44.966 -4.97712 -46.0016 45.0351 
-5.94968 -45.9925 45.014 -6.93756 -46.0011 45.0006 -7.94327 -46 45.0082 
-8.96316 -46.0057 44.992 -9.98513 -46.0128 44.9866 -10.9971 -45.9788 45.005 
-11.9982 -45.9498 44.9693 -13.0588 -46.6333 45.5819 -12.8691 -46.1466 44.8938 
-13.4898 -46.6448 44.9199 -2.28565 -46.2095 43.8913 -1.93328 -46.7333 44.2576 
-1.70266 -46.5003 43.7453 -3.18221 -46.1149 44.2169 -2.58918 -46.6747 44.6064 
-4.06812 -45.8843 43.7542 -4.97556 -46.0121 44.0008 -5.95925 -46.0227 44.0058 
-6.97474 -46.0261 43.9764 -7.98858 -46.0295 43.9714 -8.98776 -46.0275 43.9688 
-9.97541 -46.0236 43.9732 -10.9656 -46.0029 43.9927 -11.9797 -45.9529 43.9905 
-13.0445 -46.0668 43.8975 -13.5599 -46.4715 44.245 -1.97644 -46.1493 43.1711 
-1.56216 -46.6059 42.9871 -2.94909 -45.8267 43.2303 -4.99314 -45.9164 42.9051 
-5.99256 -46.0496 42.9946 -7.019 -46.0318 42.9641 -8.03097 -46.0187 42.9568 
-9.0241 -46.0201 42.9641 -10.0081 -46.0288 42.9658 -10.995 -46.0299 42.9714 
-11.9986 -45.9926 42.9742 -12.9909 -45.9729 42.9237 -14.0356 -46.6706 43.5361 
-13.8529 -46.2124 42.8252 -14.4635 -46.7004 42.9087 -1.92153 -45.8967 42.0736 
-1.30862 -46.5669 42.0286 -5.11723 -45.9219 41.7256 -5.98185 -46.0787 41.958 
-7.00302 -46.0442 41.9727 -7.9981 -46.0168 41.952 -8.99997 -46.0237 41.9594 
-10.0192 -46.0209 41.9776 -11.0122 -46.0247 41.9703 -12.001 -46.0188 41.965 
-12.9964 -46.0031 41.9268 -13.8434 -46.1446 41.9152 -14.4793 -46.5427 42.1866 
-16.3293 -46.3085 41.9807 -15.8645 -46.6323 42.3515 -15.6933 -46.651 41.8499 
-17.3365 -46.1183 41.9257 -16.8795 -46.593 42.57 -18.1196 -46.2351 41.8071 
-17.8541 -46.4748 42.313 -18.3561 -46.7028 41.9887 -1.12153 -46.1102 41.1308 
-0.885843 -46.659 41.5108 -0.625113 -46.6169 40.8775 -5.23948 -45.867 40.7579 
-6.00676 -46.0861 40.9215 -6.99485 -46.0905 40.9518 -7.82124 -46.0532 41.0966 
-8.71624 -46.1799 40.8959 -9.90311 -46.1831 40.9619 -11.0111 -46.0542 40.9665 
-12.0149 -46.0434 40.9502 -13.0076 -46.0426 40.9163 -14.0609 -46.1751 40.8279 
-14.5679 -46.5461 41.2299 -16.1269 -46.4786 41.4274 -16.2213 -46.4852 40.8221 
-16.9329 -45.9478 40.8631 -17.9607 -46.0932 41.0054 -18.3705 -46.608 41.1035 
-0.910468 -45.9575 40.1873 -0.543264 -46.6278 39.9506 -6.07778 -45.8873 40.0705 
-7.08051 -45.9751 39.8781 -8.1515 -46.1877 39.9802 -8.75373 -46.5217 40.0781 
-9.35348 -46.5793 40.3904 -10.0946 -46.522 40.3034 -10.2653 -46.5354 39.8041 
-10.916 -46.1751 39.9112 -12.0426 -46.0629 39.9555 -13.041 -46.0576 39.9326 
-14.056 -46.072 39.8832 -14.9373 -46.5274 40.5168 -15.1584 -46.2019 39.9005 
-16.1682 -46.1272 40.1453 -15.6636 -46.6081 40.4698 -17.9521 -45.9533 39.8676 
-18.3174 -46.479 39.9787 -1.03487 -45.9584 39.1748 -0.619277 -46.8254 38.8976 
-8.08757 -45.8719 39.0547 -8.92103 -46.5411 39.5785 -9.1076 -46.1226 39.0505 
-10.2997 -46.1012 39.1233 -9.66078 -46.6097 39.5105 -11.196 -45.8909 38.9853 
-12.0226 -45.9119 39.1032 -13.0277 -45.9151 39.0969 -14.0299 -45.9144 39.0634 
-15.0305 -45.9072 39.0512 -15.9296 -45.817 39.2747 -18.1191 -46.0102 38.654 
-18.3326 -46.5139 38.8807 -1.20002 -46.2589 38.3794 -1.97974 -45.9347 37.7915 
-1.39774 -46.431 37.6104 -18.1293 -46.1355 37.9779 -18.2983 -46.4611 38.0905 
-2.16926 -46.1733 36.8724 -1.53684 -46.6295 36.8188 -2.84575 -45.9694 37.0008 
-3.49719 -46.5126 36.8219 -3.93339 -46.2449 37.2117 -4.33833 -46.4793 37.0092 
-16.8948 -45.9055 36.7618 -17.4686 -46.3551 37.1379 -18.0236 -46.3762 37.6362 
-2.01131 -46.5272 36.5214 -2.86303 -46.2063 36.166 -2.52657 -46.7016 36.0479 
-3.25534 -46.4953 36.1658 -4.92991 -46.4155 36.4735 -5.86114 -46.254 35.9901 
-5.4172 -46.7027 35.8861 -6.36188 -46.4036 35.9787 -6.73301 -46.5538 36.274 
-6.99333 -46.0221 35.8669 -7.39887 -46.6064 36.0714 -8.43546 -46.2007 35.8867 
-9.10425 -46.7032 36.325 -10.005 -46.5813 36.399 -11.1187 -46.4063 36.2853 
-11.8359 -46.0982 35.9184 -11.7222 -46.7141 35.9728 -13.8813 -45.9339 35.7559 
-14.254 -46.3551 35.9455 -14.8416 -46.3828 36.3139 -15.7855 -46.4085 36.4814 
-16.7316 -46.4754 36.6123 -3.0991 -46.7159 35.7385 -5.99019 -46.8372 35.7067 
-7.75118 -46.2709 35.6724 -12.2539 -46.2872 35.625 -12.8275 -46.5379 35.5193 
-13.6265 -46.4765 35.6221 -7.97649 -46.3242 29.0097 -7.75506 -46.7196 29.2491 
-7.6547 -46.4179 29.0285 -8.29897 -46.8023 28.875 -7.73477 -46.6028 28.7105 
-14.1023 -46.1805 27.6059 -13.8542 -46.5133 28.1911 -13.3877 -46.3741 27.7873 
-14.4558 -46.546 28.0971 -13.2316 -46.2223 27.2073 -12.7859 -46.6643 27.4581 
-12.7758 -46.6976 26.9012 -13.9768 -46.0735 26.8513 -15.0908 -46.6263 27.6014 
-14.8833 -46.1567 26.9089 -15.5339 -46.616 26.9625 -13.2148 -46.4562 26.7301 
-13.8961 -46.5165 26.3612 -14.4319 -46.4671 25.6671 -15.0175 -46.1198 25.9517 
-15.6206 -46.4407 26.2771 -15.1413 -46.0467 24.9137 -14.492 -46.439 24.7247 
-15.9173 -46.3472 25.509 -15.909 -46.1128 24.832 -16.3842 -46.703 25.083 
-15.0166 -46.1474 24.153 -14.6493 -46.5045 23.8473 -15.7225 -46.1022 24.0329 
-16.3554 -46.5574 24.1905 -15.3561 -46.596 23.4338 -16.0518 -46.6548 23.6003 
-5.2217 -47.265 47.9831 -4.97329 -47.7071 48.4519 -4.69835 -47.6468 47.8732 
-6.09224 -46.9996 47.8854 -5.69649 -47.5261 48.4874 -7.25339 -47.0187 47.9841 
-6.70725 -47.5101 48.4818 -8.30444 -47.0473 47.8005 -7.72934 -47.5379 48.4874 
-9.30531 -47.1851 47.8197 -8.71181 -47.5391 48.4739 -10.2761 -47.1779 47.8291 
-9.69364 -47.5308 48.4871 -11.2073 -47.2121 47.7089 -10.6493 -47.5275 48.4041 
-11.397 -47.5524 48.1427 -5.15286 -46.9382 47.3303 -4.47589 -47.473 47.1301 
-9.07676 -46.8252 47.1138 -10.0027 -46.8899 47.1206 -11.0099 -46.8712 47.1059 
-11.9315 -47.4037 47.6357 -12.1524 -46.9787 46.9037 -13.0221 -47.2191 46.7054 
-12.8958 -47.6717 47.4591 -13.5094 -47.6742 46.9157 -3.1261 -46.9826 46.0181 
-3.31618 -47.5414 46.3406 -2.73897 -47.5373 45.7016 -4.02806 -47.2481 46.6631 
-12.868 -46.875 46.2073 -13.5083 -47.3753 46.1719 -2.92117 -46.8893 45.3674 
-2.50887 -47.4126 45.0576 -13.9902 -47.0892 44.5788 -13.987 -47.5313 45.4402 
-14.4822 -47.7553 44.8757 -2.04179 -47.6104 44.5271 -1.57812 -47.209 43.8636 
-13.9992 -46.8979 44.0215 -14.4913 -47.4422 44.1419 -16.1479 -47.194 43.7552 
-15.9031 -47.6184 44.3436 -15.3971 -47.4712 43.8098 -17.0195 -47.2577 43.7788 
[...]
CELL_DATA 30720
SCALARS scalars float
LOOKUP_TABLE default
1025 1025 1025 1025 1025 1025 1025 1025 1025 
1025 1025 1025 1025 1025 1025 1025 1025 1025 
1025 1025 1025 1025 1025 1025 1025 1025 1025 
1025 1025 1025 1025 1025 1025 1025 1025 1025 
1025 1025 1025 1025 1025 1025 1025 1025 1025 
1025 1025 1025 1025 1025 1025 1025 1025 1025 
1025 1025 1025 1025 1025 1025 1025 1025 1025 
1025 1025 1025 1025 1025 1025 1025 1025 1025 
1025 1025 1025 1025 1025 1025 1025 1025 1025 
1025 1025 1025 1025 1025 1025 1025 1025 1025 
1025 1025 1025 1025 1025 1025 1025 1025 1025 
1025 1025 1025 1025 1025 1025 1025 1025 1025 
1025 1025 1025 1025 1025 1025 1025 1025 1025 
1025 1025 1025 1025 1025 1025 1025 1025 1025 
1025 1025 1025 1025 1025 1025 1025 1025 1025 
1025 1025 1025 1025 1025 1025 1025 1025 1025 
1025 1025 1025 1025 1025 1025 1025 1025 1025 
1025 1025 1025 1025 1025 1025 1025 1025 1025 
1025 1025 1025 1025 1025 1025 1025 1025 1025 
1025 1025 1025 1025 1025 1025 1025 1025 1025 
1025 1025 1025 1025 1025 1025 1025 1025 1025 
1025 1025 1025 1025 1025 1025 1025 1025 1025 
1025 1025 1025 1025 1025 1025 1025 1025 1025 
1025 1025 1025 1025 1025 1025 1025 1025 1025 
1025 1025 1025 1025 1025 1025 1025 1025 1025 
1025 1025 1025 1025 1025 1025 1025 1025 1025 
1025 1025 1025 1025 1025 1025 1025 1025 1025 
1025 1025 1025 1025 1025 1025 1025 1025 1025 
1025 1025 1025 1025 1025 1025 1025 1025 1025 
1025 1025 1025 1025 1025 1025 1025 1025 1025 
1025 1025 1025 1025 1025 1025 1025 1025 1025 
1025 1025 1025 1025 1025 1025 1025 1025 1025 
1025 1025 1025 1025 1025 1025 1025 1025 1025 
1025 1025 1025 1025 1025 1025 1025 1025 1025 
1025 1025 1025 1025 1025 1025 1025 1025 1025 
1025 1025 1025 1025 1025 1025 1025 1025 1025 
1025 1025 1025 1025 1025 1025 1025 1025 1025 
1025 1025 1025 1025 1025 1025 1025 1025 1025 
1025 1025 1025 1025 1025 1025 1025 1025 1025 
1025 1025 1025 1025 1025 1025 1025 1025 1025 
1025 1025 1025 1025 1025 1025 1025 1025 1025 
1025 1025 1025 1025 1025 1025 1025 1025 1025 
1025 1025 1025 1025 1025 1025 1025 1025 1025 
1025 1025 1025 1025 1025 1025 1025 1025 1025 
1025 1025 1025 1025 1025 1025 1025 1025 1025 
1025 1025 1025 1025 1025 1025 1025 1025 1025 
1025 1025 1025 1025 1025 1025 1025 1025 1025 
1025 1025 1025 1025 1025 1025 1025 1025 1025 
1025 1025 1025 1025 1025 1025 1025 1025 1025 
1025 1025 1025 1025 1025 1025 1025 1025 1025 
1025 1025 1025 1025 1025 1025 1025 1025 1025 
1025 1025 1025 1025 1025 1025 1025 1025 1025 
1025 1025 1025 1025 1025 1025 1025 1025 1025 
1025 1025 1025 1025 1025 1025 1025 1025 1025 
1025 1025 1025 1025 1025 1025 1025 1025 1025 
1025 1025 1025 1025 1025 1025 1025 1025 1025 
1025 1025 1025 1025 1025 1025 1025 1025 1025 
1025 1025 1025 1025 1025 1025 1025 1025 1025 
1025 1025 1025 1025 1025 1025 1025 1025 1025 
1025 1025 1025 1025 1025 1025 1025 1025 1025 
1025 1025 1025 1025 1025 1025 1025 1025 1025 
1025 1025 1025 1025 1025 1025 1025 1025 1025 
1025 1025 1025 1025 1025 1025 1025 1025 1025 
1025 1025 1025 1025 1025 1025 1025 1025 1025 
1025 1025 1025 1025 1025 1025 1025 1025 1025 
1025 1025 1025 1025 1025 1025 1025 1025 1025 
1025 1025 1025 1025 1025 1025 1025 1025 1025 
1025 1025 1025 1025 1025 1025 1025 1025 1025 
1025 1025 1025 1025 1025 1025 1025 1025 1025 
1025 1025 1025 1025 1025 1025 1025 1025 1025 
1025 1025 1025 1025 1025 1025 1025 1025 1025 
1025 1025 1025 1025 1025 1025 1025 1025 1025 
1025 1025 1025 1025 1025 1025 1025 1025 1025 
1025 1025 1025 1025 1025 1025 1025 1025 1025 
1025 1025 1025 1025 1025 1025 1025 1025 1025 
1025 1025 1025 1025 1025 1025 1025 1025 1025 
1025 1025 1025 1025 1025 1025 1025 1025 1025 
1025 1025 1025 1025 1025 1025 1025 1025 1025 
1025 1025 1025 1025 1025 1025 1025 1025 1025 
1025 1025 1025 1025 1025 1025 1025 1025 1025 
1025 1025 1025 1025 1025 1025 1025 1025 1025 
1025 1025 1025 1025 1025 1025 1025 1025 1025 
1025 1025 1025 1025 1025 1025 1025 1025 1025 
1025 1025 1025 1025 1025 1025 1025 1025 1025 
1025 1025 1025 1025 1025 1025 1025 1025 1025 
1025 1025 1025 1025 1025 1025 1025 1025 1025 
1025 1025 1025 1025 1025 1025 1025 1025 1025 
1025 1025 1025 1025 1025 1025 1025 1025 1025 
1025 1025 1025 1025 1025 1025 1025 1025 1025 
1025 1025 1025 1025 1025 1025 1025 1025 1025 
1025 1025 1025 1025 1025 1025 1025 1025 1025 
1025 1025 1025 1025 1025 1025 1025 1025 1025 
1025 1025 1025 1025 1025 1025 1025 1025 1025 
1025 1025 1025 1025 1025 1025 1025 1025 1025 
1025 1025 1025 1025 1025 1025 1025 1025 1025 
1025 1025 1025 1025 1025 1025 1025 1025 1025 
1025 1025 1025 1025 1025 1025 1025 1025 1025 
1025 1025 1025 1025 1025 1025 1025 1025 1025 
1025 1025 1025 1025 1025 1025 1025 1025 1025 
1025 1025 1025 1025 1025 1025 1025 1025 1025 
1025 1025 1025 1025 1025 1025 1025 1025 1025 
1025 1025 1025 1025 1025 1025 1025 1025 1025 
1025 1025 1025 1025 1025 1025 1025 1025 1025 
1025 1025 1025 1025 1025 1025 1025 1025 1025 
1025 1025 1025 1025 1025 1025 1025 1025 1025 
1025 1025 1025 1025 1025 1025 1025 1025 1025 
1025 1025 1025 1025 1025 1025 1025 1025 1025 
1025 1025 1025 1025 1025 1025 1025 1025 1025 
1025 1025 1025 1025 1025 1025 1025 1025 1025 
1025 1025 1025 1025 1025 1025 1025 1025 1025 
1025 1025 1025 1025 1025 1025 1025 1025 1025 
1025 1025 1025 1025 1025 1025 1025 1025 1025 
1025 1025 1025 1025 1025 1025 1025 1025 1025 
1025 1025 1025 1025 1025 1025 1025 1025 1025 
1025 1025 1025 1025 1025 1025 1025 1025 1025 
1025 1025 1025 1025 1025 1025 1025 1025 1025 
1025 1025 1025 1025 1025 1025 1025 1025 1025 
1025 1025 1025 1025 1025 1025 1025 1025 1025 
1025 1025 1025 1025 1025 1025 1025 1025 1025 
1025 1025 1025 1025 1025 1025 1025 1025 1025 
1025 1025 1025 1025 1025 1025 1025 1025 1025 
1025 1025 1025 1025 1025 1025 1025 1025 1025 
1025 1025 1025 1025 1025 1025 1025 1025 1025 
1025 1025 1025 1025 1025 1025 1025 1025 1025 
1025 1025 1025 1025 1025 1025 1025 1025 1025 
1025 1025 1025 1025 1025 1025 1025 1025 1025 
1025 1025 1025 1025 1025 1025 1025 1025 1025 
1025 1025 1025 1025 1025 1025 1025 1025 1025 
1025 1025 1025 1025 1025 1025 1025 1025 1025 
1025 1025 1025 1025 1025 1025 1025 1025 1025 
1025 1025 1025 1025 1025 1025 1025 1025 1025 
1025 1025 1025 1025 1025 1025 1025 1025 1025 
1025 1025 1025 1025 1025 1025 1025 1025 1025 
1025 1025 1025 1025 1025 1025 1025 1025 1025 
1025 1025 1025 1025 1025 1025 1025 1025 1025 
1025 1025 1025 1025 1025 1025 1025 1025 1025 
1025 1025 1025 1025 1025 1025 1025 1025 1025 
1025 1025 1025 1025 1025 1025 1025 1025 1025 
1025 1025 1025 1025 1025 1025 1025 1025 1025 
1025 1025 1025 1025 1025 1025 1025 1025 1025 
1025 1025 1025 1025 1025 1025 1025 1025 1025 
1025 1025 1025 1025 1025 1025 1025 1025 1025 
1025 1025 1025 1025 1025 1025 1025 1025 1025 
1025 1025 1025 1025 1025 1025 1025 1025 1025 
1025 1025 1025 1025 1025 1025 1025 1025 1025 
1025 1025 1025 1025 1025 1025 1025 1025 1025 
1025 1025 1025 1025 1025 1025 1025 1025 1025 
1025 1025 1025 1025 1025 1025 1025 1025 1025 
1025 1025 1025 1025 1025 1025 1025 1025 1025 
1025 1025 1025 1025 1025 1025 1025 1025 1025 
1025 1025 1025 1025 1025 1025 1025 1025 1025 
1025 1025 1025 1025 1025 1025 1025 1025 1025 
1025 1025 1025 1025 1025 1025 1025 1025 1025 
1025 1025 1025 1025 1025 1025 1025 1025 1025 
1025 1025 1025 1025 1025 1025 1025 1025 1025 
1025 1025 1025 1025 1025 1025 1025 1025 1025 
1025 1025 1025 1025 1025 1025 1025 1025 1025 
1025 1025 1025 1025 1025 1025 1025 1025 1025 
1025 1025 1025 1025 1025 1025 1025 1025 1025 
1025 1025 1025 1025 1025 1025 1025 1025 1025 
1025 1025 1025 1025 1025 1025 1025 1025 1025 
1025 1025 1025 1025 1025 1025 1025 1025 1025 
1025 1025 1025 1025 1025 1025 1025 1025 1025 
1025 1025 1025 1025 1025 1025 1025 1025 1025 
1025 1025 1025 1025 1025 1025 1025 1025 1025 
1025 1025 1025 1025 1025 1025 1025 1025 1025 
1025 1025 1025 1025 1025 1025 1025 1025 1025 
1025 1025 1025 1025 1025 1025 1025 1025 1025 
1025 1025 1025 1025 1025 1025 1025 1025 1025 
1025 1025 1025 1025 1025 1025 1025 1025 1025 
1025 1025 1025 1025 1025 1025 1025 1025 1025 
1025 1025 1025 1025 1025 1025 1025 1025 1025 
1025 1025 1025 1025 1025 1025 1025 1025 1025 
1025 1025 1025 1025 1025 1025 1025 1025 1025 
1025 1025 1025 1025 1025 1025 1025 1025 1025 
1025 1025 1025 1025 1025 1025 1025 1025 1025 
1025 1025 1025 1025 1025 1025 1025 1025 1025 
1025 1025 1025 1025 1025 1025 1025 1025 1025 
1025 1025 1025 1025 1025 1025 1025 1025 1025 
1025 1025 1025 1025 1025 1025 1025 1025 1025 
1025 1025 1025 1025 1025 1025 1025 1025 1025 
1025 1025 1025 1025 1025 1025 1025 1025 1025 
1025 1025 1025 1025 1025 1025 1025 1025 1025 
1025 1025 1025 1025 1025 1025 1025 1025 1025 
1025 1025 1025 1025 1025 1025 1025 1025 1025 
1025 1025 1025 1025 1025 1025 1025 1025 1025 
1025 1025 1025 1025 1025 1025 1025 1025 1025 
1025 1025 1025 1025 1025 1025 1025 1025 1025 
1025 1025 1025 1025 1025 1025 1025 1025 1025 
1025 1025 1025 1025 1025 1025 1025 1025 1025 
1025 1025 1025 1025 1025 1025 1025 1025 1025 
1025 1025 1025 1025 1025 1025 1025 1025 1025 
1025 1025 1025 1025 1025 1025 1025 1025 1025 
1025 1025 1025 1025 1025 1025 1025 1025 1025 
1025 1025 1025 1025 1025 1025 1025 1025 1025 
1025 1025 1025 1025 1025 1025 1025 1025 1025 
1025 1025 1025 1025 1025 1025 1025 1025 1025 
1025 1025 1025 1025 1025 1025 1025 1025 1025 
1025 1025 1025 1025 1025 1025 1025 1025 1025 
1025 1025 1025 1025 1025 1025 1025 1025 1025 
1025 1025 1025 1025 1025 1025 1025 1025 1025 
1025 1025 1025 1025 1025 1025 1025 1025 1025 
1025 1025 1025 1025 1025 1025 1025 1025 1025 
1025 1025 1025 1025 1025 1025 1025 1025 1025 
1025 1025 1025 1025 1025 1025 1025 1025 1025 
1025 1025 1025 1025 1025 1025 1025 1025 1025 
1025 1025 1025 1025 1025 1025 1025 1025 1025 
1025 1025 1025 1025 1025 1025 1025 1025 1025 
1025 1025 1025 1025 1025 1025 1025 1025 1025 
1025 1025 1025 1025 1025 1025 1025 1025 1025 
1025 1025 1025 1025 1025 1025 1025 1025 1025 
1025 1025 1025 1025 1025 1025 1025 1025 1025 
1025 1025 1025 1025 1025 1025 1025 1025 1025 
1025 1025 1025 1025 1025 1025 1025 1025 1025 
1025 1025 1025 1025 1025 1025 1025 1025 1025 
1025 1025 1025 1025 1025 1025 1025 1025 1025 
1025 1025 1025 1025 1025 1025 1025 1025 1025 
1025 1025 1025 1025 1025 1025 1025 1025 1025 
1025 1025 1025 1025 1025 1025 1025 1025 1025 
1025 1025 1025 1025 1025 1025 1025 1025 1025 
1025 1025 1025 1025 1025 1025 1025 1025 1025 
1025 1025 1025 1025 1025 1025 1025 1025 1025 
1025 1025 1025 1025 1025 1025 1025 1025 1025 
1025 1025 1025 1025 1025 1025 1025 1025 1025 
1025 1025 1025 1025 1025 1025 1025 1025 1025 
1025 1025 1025 1025 1025 1025 1025 1025 1025 
1025 1025 1025 1025 1025 1025 1025 1025 1025 
1025 1025 1025 1025 1025 1025 1025 1025 1025 
1025 1025 1025 1025 1025 1025 1025 1025 1025 
1025 1025 1025 1025 1025 1025 1025 1025 1025 
1025 1025 1025 1025 1025 1025 1025 1025 1025 
1025 1025 1025 1025 1025 1025 1025 1025 1025 
1025 1025 1025 1025 1025 1025 1025 1025 1025 
1025 1025 1025 1025 1025 1025 1025 1025 1025 
1025 1025 1025 1025 1025 1025 1025 1025 1025 
1025 1025 1025 1025 1025 1025 1025 1025 1025 
1025 1025 1025 1025 1025 1025 1025 1025 1025 
1025 1025 1025 1025 1025 1025 1025 1025 1025 
1025 1025 1025 1025 1025 1025 1025 1025 1025 
1025 1025 1025 1025 1025 1025 1025 1025 1025 
1025 1025 1025 1025 1025 1025 1025 1025 1025 
1025 1025 1025 1025 1025 1025 1025 1025 1025 
1025 1025 1025 1025 1025 1025 1025 1025 1025 
1025 1025 1025 1025 1025 1025 1025 1025 1025 
1025 1025 1025 1025 1025 1025 1025 1025 1025 
1025 1025 1025 1025 1025 1025 1025 1025 1025 
1025 1025 1025 1025 1025 1025 1025 1025 1025 
1025 1025 1025 1025 1025 1025 1025 1025 1025 
1025 1025 1025 1025 1025 1025 1025 1025 1025 
1025 1025 1025 1025 1025 1025 1025 1025 1025 
1025 1025 1025 1025 1025 1025 1025 1025 1025 
1025 1025 1025 1025 1025 1025 1025 1025 1025 
1025 1025 1025 1025 1025 1025 1025 1025 1025 
1025 1025 1025 1025 1025 1025 1025 1025 1025 
1025 1025 1025 1025 1025 1025 1025 1025 1025 
1025 1025 1025 1025 1025 1025 1025 1025 1025 
1025 1025 1025 1025 1025 1025 1025 1025 1025 
1025 1025 1025 1025 1025 1025 1025 1025 1025 
1025 1025 1025 1025 1025 1025 1025 1025 1025 
1025 1025 1025 1025 1025 1025 1025 1025 1025 
1025 1025 1025 1025 1025 1025 1025 1025 1025 
1025 1025 1025 1025 1025 1025 1025 1025 1025 
1025 1025 1025 1025 1025 1025 1025 1025 1025 
1025 1025 1025 1025 1025 1025 1025 1025 1025 
1025 1025 1025 1025 1025 1025 1025 1025 1025 
1025 1025 1025 1025 1025 1025 1025 1025 1025 
1025 1025 1025 1025 1025 1025 1025 1025 1025 
1025 1025 1025 1025 1025 1025 1025 1025 1025 
1025 1025 1025 1025 1025 1025 1025 1025 1025 
1025 1025 1025 1025 1025 1025 1025 1025 1025 
1025 1025 1025 1025 1025 1025 1025 1025 1025 
1025 1025 1025 1025 1025 1025 1025 1025 1025 
1025 1025 1025 1025 1025 1025 1025 1025 1025 
1025 1025 1025 1025 1025 1025 1025 1025 1025 
1025 1025 1025 1025 1025 1025 1025 1025 1025 
1025 1025 1025 1025 1025 1025 1025 1025 1025 
1025 1025 1025 1025 1025 1025 1025 1025 1025 
1025 1025 1025 1025 1025 1025 1025 1025 1025 
1025 1025 1025 1025 1025 1025 1025 1025 1025 
1025 1025 1025 1025 1025 1025 1025 1025 1025 
1025 1025 1025 1025 1025 1025 1025 1025 1025 
1025 1025 1025 1025 1025 1025 1025 1025 1025 
1025 1025 1025 1025 1025 1025 1025 1025 1025 
1025 1025 1025 1025 1025 1025 1025 1025 1025 
1025 1025 1025 1025 1025 1025 1025 1025 1025 
1025 1025 1025 1025 1025 1025 1025 1025 1025 
1025 1025 1025 1025 1025 1025 1025 1025 1025 
1025 1025 1025 1025 1025 1025 1025 1025 1025 
1025 1025 1025 1025 1025 1025 1025 1025 1025 
1025 1025 1025 1025 1025 1025 1025 1025 1025 
1025 1025 1025 1025 1025 1025 1025 1025 1025 
1025 1025 1025 1025 1025 1025 1025 1025 1025 
1025 1025 1025 1025 1025 1025 1025 1025 1025 
1025 1025 1025 1025 1025 1025 1025 1025 1025 
1025 1025 1025 1025 1025 1025 1025 1025 1025 
1025 1025 1025 1025 1025 1025 1025 1025 1025 
1025 1025 1025 1025 1025 1025 1025 1025 1025 
1025 1025 1025 1025 1025 1025 1025 1025 1025 
1025 1025 1025 1025 1025 1025 1025 1025 1025 
1025 1025 1025 1025 1025 1025 1025 1025 1025 
1025 1025 1025 1025 1025 1025 1025 1025 1025 
1025 1025 1025 1025 1025 1025 1025 1025 1025 
1025 1025 1025 1025 1025 1025 1025 1025 1025 
1025 1025 1025 1025 1025 1025 1025 1025 1025 
1025 1025 1025 1025 1025 1025 1025 1025 1025 
1025 1025 1025 1025 1025 1025 1025 1025 1025 
1025 1025 1025 1025 1025 1025 1025 1025 1025 
1025 1025 1025 1025 1025 1025 1025 1025 1025 
1025 1025 1025 1025 1025 1025 1025 1025 1025 
1025 1025 1025 1025 1025 1025 1025 1025 1025 
1025 1025 1025 1025 1025 1025 1025 1025 1025 
1025 1025 1025 1025 1025 1025 1025 1025 1025 
1025 1025 1025 1025 1025 1025 1025 1025 1025 
1025 1025 1025 1025 1025 1025 1025 1025 1025 
1025 1025 1025 1025 1025 1025 1025 1025 1025 
1025 1025 1025 1025 1025 1025 1025 1025 1025 
1025 1025 1025 1025 1025 1025 1025 1025 1025 
1025 1025 1025 1025 1025 1025 1025 1025 1025 
1025 1025 1025 1025 1025 1025 1025 1025 1025 
1025 1025 1025 1025 1025 1025 1025 1025 1025 
1025 1025 1025 1025 1025 1025 1025 1025 1025 
1025 1025 1025 1025 1025 1025 1025 1025 1025 
1025 1025 1025 1025 1025 1025 1025 1025 1025 
1025 1025 1025 1025 1025 1025 1025 1025 1025 
1025 1025 1025 1025 1025 1025 1025 1025 1025 
1025 1025 1025 1025 1025 1025 1025 1025 1025 
1025 1025 1025 1025 1025 1025 1025 1025 1025 
1025 1025 1025 1025 1025 1025 1025 1025 1025 
1025 1025 1025 1025 1025 1025 1025 1025 1025 
1025 1025 1025 1025 1025 1025 1025 1025 1025 
1025 1025 1025 1025 1025 1025 1025 1025 1025 
1025 1025 1025 1025 1025 1025 1025 1025 1025 
1025 1025 1025 1025 1025 1025 1025 1025 1025 
1025 1025 1025 1025 1025 1025 1025 1025 1025 
1025 1025 1025 1025 1025 1025 1025 1025 1025 
1025 1025 1025 1025 1025 1025 1025 1025 1025 
1025 1025 1025 1025 1025 1025 1025 1025 1025 
1025 1025 1025 1025 1025 1025 1025 1025 1025 
1025 1025 1025 1025 1025 1025 1025 1025 1025 
1025 1025 1025 1025 1025 1025 1025 1025 1025 
1025 1025 1025 1025 1025 1025 1025 1025 1025 
1025 1025 1025 1025 1025 1025 1025 1025 1025 
1025 1025 1025 1025 1025 1025 1025 1025 1025 
1025 1025 1025 1025 1025 1025 1025 1025 1025 
1025 1025 1025 1025 1025 1025 1025 1025 1025 
1025 1025 1025 1025 1025 1025 1025 1025 1025 
1025 1025 1025 1025 1025 1025 1025 1025 1025 
1025 1025 1025 1025 1025 1025 1025 1025 1025 
1025 1025 1025 1025 1025 1025 1025 1025 1025 
1025 1025 1025 1025 1025 1025 1025 1025 1025 
1025 1025 1025 1025 1025 1025 1025 1025 1025 
1025 1025 1025 1025 1025 1025 1025 1025 1025 
1025 1025 1025 1025 1025 1025 1025 1025 1025 
1025 1025 1025 1025 1025 1025 1025 1025 1025 
1025 1025 1025 1025 1025 1025 1025 1025 1025 
1025 1025 1025 1025 1025 1025 1025 1025 1025 
1025 1025 1025 1025 1025 1025 1025 1025 1025 
1025 1025 1025 1025 1025 1025 1025 1025 1025 
1025 1025 1025 1025 1025 1025 1025 1025 1025 
1025 1025 1025 1025 1025 1025 1025 1025 1025 
1025 1025 1025 1025 1025 1025 1025 1025 1025 
1025 1025 1025 1025 1025 1025 1025 1025 1025 
1025 1025 1025 1025 1025 1025 1025 1025 1025 
1025 1025 1025 1025 1025 1025 1025 1025 1025 
1025 1025 1025 1025 1025 1025 1025 1025 1025 
1025 1025 1025 1025 1025 1025 1025 1025 1025 
1025 1025 1025 1025 1025 1025 1025 1025 1025 
1025 1025 1025 1025 1025 1025 1025 1025 1025 
1025 1025 1025 1025 1025 1025 1025 1025 1025 
1025 1025 1025 1025 1025 1025 1025 1025 1025 
1025 1025 1025 1025 1025 1025 1025 1025 1025 
1025 1025 1025 1025 1025 1025 1025 1025 1025 
1025 1025 1025 1025 1025 1025 1025 1025 1025 
1025 1025 1025 1025 1025 1025 1025 1025 1025 
1025 1025 1025 1025 1025 1025 1025 1025 1025 
1025 1025 1025 1025 1025 1025 1025 1025 1025 
1025 1025 1025 1025 1025 1025 1025 1025 1025 
1025 1025 1025 1025 1025 1025 1025 1025 1025 
1025 1025 1025 1025 1025 1025 1025 1025 1025 
1025 1025 1025 1025 1025 1025 1025 1025 1025 
1025 1025 1025 1025 1025 1025 1025 1025 1025 
1025 1025 1025 1025 1025 1025 1025 1025 1025 
1025 1025 1025 1025 1025 1025 1025 1025 1025 
1025 1025 1025 1025 1025 1025 1025 1025 1025 
1025 1025 1025 1025 1025 1025 1025 1025 1025 
1025 1025 1025 1025 1025 1025 1025 1025 1025 
1025 1025 1025 1025 1025 1025 1025 1025 1025 
1025 1025 1025 1025 1025 1025 1025 1025 1025 
1025 1025 1025 1025 1025 1025 1025 1025 1025 
1025 1025 1025 1025 1025 1025 1025 1025 1025 
1025 1025 1025 1025 1025 1025 1025 1025 1025 
1025 1025 1025 1025 1025 1025 1025 1025 1025 
1025 1025 1025 1025 1025 1025 1025 1025 1025 
1025 1025 1025 1025 1025 1025 1025 1025 1025 
1025 1025 1025 1025 1025 1025 1025 1025 1025 
1025 1025 1025 1025 1025 1025 1025 1025 1025 
1025 1025 1025 1025 1025 1025 1025 1025 1025 
1025 1025 1025 1025 1025 1025 1025 1025 1025 
1025 1025 1025 1025 1025 1025 1025 1025 1025 
1025 1025 1025 1025 1025 1025 1025 1025 1025 
1025 1025 1025 1025 1025 1025 1025 1025 1025 
1025 1025 1025 1025 1025 1025 1025 1025 1025 
1025 1025 1025 1025 1025 1025 1025 1025 1025 
1025 1025 1025 1025 1025 1025 1025 1025 1025 
1025 1025 1025 1025 1025 1025 1025 1025 1025 
1025 1025 1025 1025 1025 1025 1025 1025 1025 
1025 1025 1025 1025 1025 1025 1025 1025 1025 
1025 1025 1025 1025 1025 1025 1025 1025 1025 
1025 1025 1025 1025 1025 1025 1025 1025 1025 
1025 1025 1025 1025 1025 1025 1025 1025 1025 
1025 1025 1025 1025 1025 1025 1025 1025 1025 
1025 1025 1025 1025 1025 1025 1025 1025 1025 
1025 1025 1025 1025 1025 1025 1025 1025 1025 
1025 1025 1025 1025 1025 1025 1025 1025 1025 
1025 1025 1025 1025 1025 1025 1025 1025 1025 
1025 1025 1025 1025 1025 1025 1025 1025 1025 
1025 1025 1025 1025 1025 1025 1025 1025 1025 
1025 1025 1025 1025 1025 1025 1025 1025 1025 
1025 1025 1025 1025 1025 1025 1025 1025 1025 
1025 1025 1025 1025 1025 1025 1025 1025 1025 
1025 1025 1025 1025 1025 1025 1025 1025 1025 
1025 1025 1025 1025 1025 1025 1025 1025 1025 
1025 1025 1025 1025 1025 1025 1025 1025 1025 
1025 1025 1025 1025 1025 1025 1025 1025 1025 
1025 1025 1025 1025 1025 1025 1025 1025 1025 
1025 1025 1025 1025 1025 1025 1025 1025 1025 
1025 1025 1025 1025 1025 1025 1025 1025 1025 
1025 1025 1025 1025 1025 1025 1025 1025 1025 
1025 1025 1025 1025 1025 1025 1025 1025 1025 
1025 1025 1025 1025 1025 1025 1025 1025 1025 
1025 1025 1025 1025 1025 1025 1025 1025 1025 
1025 1025 1025 1025 1025 1025 1025 1025 1025 
1025 1025 1025 1025 1025 1025 1025 1025 1025 