# vtk DataFile Version 4.0
vtk output
ASCII
DATASET POLYDATA
POINTS 27530 float
-17.2817 70.8705 1.84992 -17.2371 70.2942 2.25181 -16.7413 70.4739 1.66861 
-17.954 70.8402 1.79416 -17.7668 70.5624 2.28733 -18.4471 70.3843 2.16516 
-16.9673 70.805 1.21634 -16.6949 70.3976 0.902705 -17.6514 70.849 1.14161 
-18.4534 70.5573 1.31693 -16.0033 70.6569 -0.0190192 -16.0179 70.2523 0.154286 
-15.7967 70.2732 -0.262084 -17.3086 70.5272 0.53464 -16.2493 70.5688 0.00537625 
-18.1218 70.4702 0.617145 -16.1527 70.5152 -0.263748 -19.119 69.8915 2.78014 
-19.1186 69.161 3.35619 -18.5813 69.4083 3.05753 -20.011 69.7909 2.81994 
-19.9483 69.3923 3.32327 -20.5463 69.3809 3.04812 -16.8488 69.9028 1.86748 
-17.291 69.5498 2.13274 -18.0177 69.5799 2.56436 -19.1846 70.1922 1.73143 
-19.9046 69.9115 2.02914 -20.5637 69.5351 2.30686 -16.771 69.0974 1.59968 
-16.4729 69.7635 1.13026 -19.0212 70.1612 0.656659 -19.9041 69.8864 0.95991 
-20.5428 69.5333 1.2686 -16.0125 69.5025 0.592581 -15.6207 69.4738 0.141466 
-16.7355 70.1681 -0.0315857 -18.1689 70.148 -0.0628445 -19.0574 70.0294 -0.0580263 
-19.713 69.8201 -0.124177 -20.5403 69.3068 0.0527917 -16.1161 70.1213 -1.08509 
-15.4681 69.502 -0.840275 -16.983 70.0481 -1.04096 -17.7524 69.9091 -1.10303 
-18.9036 69.843 -0.831347 -19.6652 69.3376 -1.13478 -20.1223 69.3626 -0.664979 
-15.0892 69.8917 -2.02612 -15.0177 69.1976 -1.65203 -14.4779 69.5601 -2.27259 
-15.7954 69.9441 -2.28039 -16.8722 69.8508 -1.84708 -17.6507 69.3394 -2.11927 
-18.3679 69.5308 -1.65103 -19.0481 69.3853 -1.57745 -14.1936 69.812 -2.84897 
-13.9118 69.2297 -2.6896 -13.7183 69.315 -3.18198 -14.8748 69.8601 -2.93605 
-15.5575 69.6323 -2.94003 -16.3305 69.5353 -2.64198 -17.0195 69.3283 -2.5468 
-14.2297 69.4104 -3.38594 -15.1515 69.2567 -3.36583 -19.1121 68.254 3.63866 
-18.4699 68.4293 3.03029 -20.0025 68.5231 3.55339 -21.286 69.0027 2.76431 
-20.8231 68.7304 3.40617 -22.0384 68.7197 2.76497 -21.6952 68.3326 3.45796 
-22.3739 68.4054 3.11188 -18.0042 68.6145 2.41149 -17.5483 68.8005 2.03236 
-21.1761 69.1708 1.69488 -21.9247 68.8556 1.97162 -22.5668 68.5118 2.26675 
-16.1163 69.0085 1.10639 -16.2735 68.4714 1.24428 -15.7239 68.7063 0.760869 
-17.0694 68.4351 1.57897 -21.0365 69.1737 0.779743 -21.6784 68.8166 0.876682 
-22.4656 68.5075 1.29869 -15.3659 68.4244 -0.0400623 -21.1735 68.8839 0.136992 
-21.6576 68.3094 -0.14408 -22.1684 68.4151 0.512845 -15.2663 68.6829 -1.03116 
-20.0754 69.0226 -1.09293 -20.4632 68.7688 -0.903731 -21.0189 68.5005 -0.587211 
-14.8695 68.4917 -1.56073 -14.4037 68.8382 -2.09992 -18.1462 69.1317 -2.10024 
-18.6929 68.9621 -2.08012 -19.392 68.7161 -1.88729 -20.1526 68.3077 -1.49795 
-13.8326 68.4346 -2.40609 -13.6115 68.3794 -2.97506 -15.9442 69.1778 -3.1347 
-16.6773 68.9109 -3.06335 -17.3692 68.5156 -2.962 -18.1304 68.3536 -2.50391 
-18.9611 68.2657 -2.30959 -13.8977 68.7173 -3.44745 -14.8255 68.5068 -3.67823 
-16.1088 68.5654 -3.56769 -16.9951 68.2724 -3.4975 -16.0116 68.6261 -5.04156 
-15.8843 68.4667 -4.78831 -15.7357 68.5232 -5.04347 -16.261 68.4552 -4.88444 
-15.9154 68.3255 -5.26297 -17.0731 68.5964 -5.70523 -16.6386 68.3907 -6.21696 
-17.1164 68.7622 -6.20988 -17.4389 68.3812 -6.0672 -23.1964 68.8716 -6.19879 
-23.0853 68.5252 -5.54791 -22.5048 68.5059 -5.9724 -24.2822 68.8986 -6.1388 
-23.7799 68.5351 -5.45681 -25.054 68.7678 -6.2368 -24.7402 68.5203 -5.5501 
-25.4127 68.4365 -5.91003 -16.9637 68.76 -6.81073 -16.7304 68.2927 -7.3128 
-17.3327 68.4518 -6.96239 -22.2057 68.8754 -7.06924 -21.9621 68.5027 -6.47415 
-21.4776 68.4822 -7.01761 -23.164 69.0431 -7.17089 -23.8809 69.036 -6.87843 
-24.7448 68.8344 -7.07067 -25.5135 68.4994 -6.68479 -17.0646 68.4391 -7.51406 
-21.2113 68.8593 -8.1159 -20.8283 68.4272 -7.61109 -20.3868 68.5772 -8.17591 
-22.1557 69.0233 -8.19537 -22.8458 69.029 -7.90304 -23.8182 68.8639 -7.98431 
-24.6636 68.5555 -7.89493 -25.2462 68.4345 -7.44551 -19.1595 68.8552 -9.24633 
-19.0157 68.5107 -8.59691 -18.4731 68.5265 -8.9821 -20.2752 68.9081 -9.0036 
-19.6419 68.5154 -8.43576 -21.175 69.0262 -9.22547 -21.8479 69.0185 -8.94189 
-22.8073 68.8495 -9.01213 -23.6348 68.5358 -8.90775 -24.2341 68.4238 -8.47633 
-18.316 68.8669 -9.97605 -17.9758 68.5385 -9.47988 -17.5826 68.4941 -10.1856 
-19.138 69.0503 -10.2084 -19.9828 69.0539 -10.0483 -20.8379 69.0445 -9.92194 
-21.7889 68.8714 -10.0513 -22.611 68.5426 -9.95906 -23.205 68.4164 -9.50912 
-17.8324 68.8851 -11.0469 -17.273 68.6129 -11.139 -18.7069 68.9348 -11.0901 
-19.7368 68.9322 -10.918 -20.8018 68.8681 -10.8403 -21.5735 68.5898 -10.9652 
-22.1741 68.4508 -10.5677 -17.2354 68.7323 -11.8268 -16.8003 68.4396 -11.6549 
-16.7313 68.4182 -12.2438 -17.9273 68.8083 -11.907 -18.5932 68.6234 -11.8984 
-19.337 68.567 -11.6178 -20.3084 68.3544 -11.5601 -21.2209 68.2743 -11.4079 
-17.3309 68.4875 -12.5101 -18.0877 68.4472 -12.4179 -23.138 67.7751 4.72226 
-23.0213 67.5502 5.17682 -22.6208 67.5825 4.8931 -23.2842 67.5119 5.07858 
-19.108 67.6869 4.00087 -18.9344 67.4353 4.15899 -18.7149 67.6939 3.83795 
-19.3495 67.3346 3.88997 -22.3796 67.9456 4.03713 -22.0084 67.12 4.46433 
-21.5696 67.632 3.94785 -23.2252 68.0176 3.8256 -23.6448 67.3055 4.71067 
-23.8626 67.7861 3.95204 -24.3237 67.4221 4.11819 -18.7253 67.4713 3.30794 
-19.9641 67.5036 3.61331 -20.9129 67.863 3.65369 -23.0733 68.1473 2.86825 
-23.9105 67.8717 2.97517 -24.5372 67.5054 3.23302 -18.085 68.1177 1.8282 
-18.8481 67.6311 2.49052 -19.0568 67.7328 1.67137 -19.4545 67.2795 1.83875 
-23.1791 68.1657 1.6574 -23.9122 67.8671 1.91872 -24.5762 67.4976 2.18925 
-15.8751 68.013 0.790905 -16.9043 67.9636 1.08956 -17.9012 67.8532 0.916489 
-18.7776 67.7885 0.998977 -19.3773 67.4834 1.11315 -22.839 68.1585 0.710698 
-23.6833 67.8301 0.824445 -24.4844 67.4853 1.23918 -14.822 67.8655 -0.229449 
-15.3196 67.5773 0.264241 -14.5501 67.5342 -0.139504 -16.3083 67.3091 0.471562 
-17.313 67.3559 0.55591 -18.3258 67.3702 0.50674 -19.098 67.3085 0.614387 
-22.2986 68.0778 0.0471588 -22.944 67.8163 0.0368276 -23.5038 67.5216 0.0766591 
-24.2086 67.1747 0.476881 -14.2199 67.7351 -0.788923 -14.1318 67.1386 -0.551443 
-13.6849 67.4529 -1.24484 -14.8488 68.1336 -0.935694 -20.8647 68.0767 -1.16989 
-21.4766 67.7394 -0.944676 -22.2866 67.4363 -0.605014 -23.0228 67.2898 -0.34274 
-14.1367 68.0454 -1.68999 -13.511 67.5321 -2.10661 -19.5121 67.7434 -2.06704 
-20.1877 67.173 -1.7452 -21.0931 67.3251 -1.43472 -13.5525 67.1799 -2.89519 
-17.7254 67.6742 -3.02428 -18.2149 67.2124 -2.72219 -18.8257 67.433 -2.41101 
-14.0722 67.7613 -3.55332 -14.8753 67.8992 -4.05454 -14.4651 67.3172 -4.1415 
-15.9562 68.2137 -4.29681 -17.1111 67.9735 -4.17644 -17.5776 67.6388 -3.66047 
-15.2601 67.9989 -4.78158 -14.7047 67.1244 -4.88338 -16.9196 68.2442 -5.22927 
-17.9067 67.5448 -4.40761 -17.9205 67.7782 -5.06981 -18.4402 67.2954 -5.07598 
-23.1074 67.9982 -5.15035 -22.8006 67.2076 -4.68233 -22.4583 67.5617 -5.14723 
-24.2653 68.0191 -4.95793 -23.7215 67.3308 -4.45874 -25.3151 68.0121 -5.15328 
-24.7613 67.507 -4.45718 -26.3193 67.8847 -5.13512 -25.7366 67.5062 -4.46578 
-27.2984 67.8832 -5.15952 -26.7447 67.514 -4.46234 -28.0287 67.7731 -5.2472 
-27.6968 67.5161 -4.56134 -28.372 67.4463 -4.9215 -15.2726 67.6261 -5.50476 
-16.0191 67.9705 -5.82119 -15.5597 67.1679 -6.23953 -17.8988 67.8691 -5.94485 
-18.3773 67.3354 -5.94536 -22.0104 68.0029 -5.97933 -22.0398 67.5057 -5.4888 
-21.5182 67.4954 -5.97223 -26.0771 68.1299 -6.11844 -27.0587 68.0049 -6.03328 
-27.9379 67.8777 -6.01441 -28.5775 67.5284 -5.76196 -16.0858 67.6603 -6.461 
-16.3568 67.4812 -7.21522 -17.74 67.6225 -7.01738 -18.1562 67.2896 -6.63372 
-20.0818 67.8086 -7.13824 -19.9865 67.2785 -6.76497 -19.5221 67.4979 -7.17222 
-20.9903 67.994 -6.89529 -20.6701 67.319 -6.46302 -25.8602 68.1311 -7.22646 
-26.7581 67.8837 -7.0896 -27.7385 67.792 -6.88967 -28.5162 67.521 -6.71297 
-16.9551 67.9492 -8.00607 -16.724 67.4156 -8.02868 -17.3267 67.7516 -7.8575 
-19.1109 68.0065 -8.02476 -18.9993 67.1558 -7.56862 -18.5034 67.4553 -8.15475 
-20.1716 68.2099 -7.74405 -25.0145 68.1569 -8.17198 -25.8966 67.7891 -8.08917 
-26.6124 67.5633 -7.88022 -27.3696 67.4904 -7.62536 -28.158 67.4145 -7.39924 
-17.0937 67.2389 -8.32941 -18.0923 67.2424 -8.52228 -17.5989 67.3136 -9.08465 
-17.9914 67.9955 -8.9968 -23.9829 68.1592 -9.19855 -24.8958 67.8084 -9.11929 
-25.6324 67.2821 -9.10061 -26.1628 67.3949 -8.44833 -17.0604 67.8792 -9.95191 
-16.8639 67.1111 -9.5851 -16.428 67.5695 -10.1508 -22.9606 68.1683 -10.2382 
-23.8842 67.8348 -10.141 -24.5859 67.5707 -9.91139 -25.0677 67.3584 -9.63614 
-16.1108 67.8344 -10.9328 -15.9923 67.5253 -10.4883 -15.4757 67.4959 -10.9824 
-16.8309 68.2247 -10.9702 -22.0723 68.1555 -11.0697 -22.912 67.8129 -10.9874 
-23.4979 67.4939 -10.9406 -24.1733 67.1625 -10.5216 -15.1811 67.8422 -12.0835 
-14.9336 67.5048 -11.491 -14.4307 67.5222 -11.9891 -16.2378 68.1117 -12.008 
-18.8148 68.233 -12.3067 -19.7097 67.9702 -12.2178 -20.5131 67.411 -12.153 
-21.1281 67.4536 -11.7479 -22.0918 67.4854 -11.4935 -22.9699 67.2878 -11.3553 
-14.3027 67.8659 -12.9972 -13.9234 67.5459 -12.5047 -13.5455 67.4843 -13.1764 
-15.1513 68.0253 -13.2481 -15.963 68.0034 -13.0857 -16.7742 68.1311 -12.9077 
-17.8698 67.9941 -13.0954 -18.9684 67.8086 -12.8892 -19.6529 67.3266 -13.0555 
-20.1012 67.3886 -12.6127 -14.0626 67.8995 -14.0607 -13.4265 67.5231 -14.3073 
-14.9609 68.0392 -14.0806 -15.8072 68.0104 -13.9545 -16.7962 67.8176 -14.0116 
-17.654 67.5443 -13.8885 -18.3846 67.4981 -13.5678 -19.074 67.3392 -13.4793 
-13.9514 67.7636 -14.8294 -13.6469 67.4329 -15.1447 -14.7198 67.8826 -14.9441 
-15.8328 67.8262 -14.8709 -16.6411 67.5374 -14.922 -17.2216 67.4078 -14.4855 
-14.3281 67.5115 -15.5255 -15.2759 67.5075 -15.6255 -16.133 67.428 -15.4582 
-23.9905 66.6518 9.94335 -23.8081 66.5298 10.1994 -23.5955 66.4052 9.86631 
-24.2713 66.5116 10.1054 -24.183 66.2261 9.65859 -22.9759 67.271 4.9567 
-24.3434 66.9431 4.85923 -24.2143 66.4153 5.16717 -23.7457 66.6582 4.9356 
-25.2829 66.8849 4.90349 -25.0439 66.3156 5.30149 -26.209 66.8332 4.80914 
[...]
CELL_DATA 55144
SCALARS scalars float
LOOKUP_TABLE default
1027 1027 1027 1027 1027 1027 1027 1027 1027 
1027 1027 1027 1027 1027 1027 1027 1027 1027 
1027 1027 1027 1027 1027 1027 1027 1027 1027 
1027 1027 1027 1027 1027 1027 1027 1027 1027 
1027 1027 1027 1027 1027 1027 1027 1027 1027 
1027 1027 1027 1027 1027 1027 1027 1027 1027 
1027 1027 1027 1027 1027 1027 1027 1027 1027 
1027 1027 1027 1027 1027 1027 1027 1027 1027 
1027 1027 1027 1027 1027 1027 1027 1027 1027 
1027 1027 1027 1027 1027 1027 1027 1027 1027 
1027 1027 1027 1027 1027 1027 1027 1027 1027 
1027 1027 1027 1027 1027 1027 1027 1027 1027 
1027 1027 1027 1027 1027 1027 1027 1027 1027 
1027 1027 1027 1027 1027 1027 1027 1027 1027 
1027 1027 1027 1027 1027 1027 1027 1027 1027 
1027 1027 1027 1027 1027 1027 1027 1027 1027 
1027 1027 1027 1027 1027 1027 1027 1027 1027 
1027 1027 1027 1027 1027 1027 1027 1027 1027 
1027 1027 1027 1027 1027 1027 1027 1027 1027 
1027 1027 1027 1027 1027 1027 1027 1027 1027 
1027 1027 1027 1027 1027 1027 1027 1027 1027 
1027 1027 1027 1027 1027 1027 1027 1027 1027 
1027 1027 1027 1027 1027 1027 1027 1027 1027 
1027 1027 1027 1027 1027 1027 1027 1027 1027 
1027 1027 1027 1027 1027 1027 1027 1027 1027 
1027 1027 1027 1027 1027 1027 1027 1027 1027 
1027 1027 1027 1027 1027 1027 1027 1027 1027 
1027 1027 1027 1027 1027 1027 1027 1027 1027 
1027 1027 1027 1027 1027 1027 1027 1027 1027 
1027 1027 1027 1027 1027 1027 1027 1027 1027 
1027 1027 1027 1027 1027 1027 1027 1027 1027 
1027 1027 1027 1027 1027 1027 1027 1027 1027 
1027 1027 1027 1027 1027 1027 1027 1027 1027 
1027 1027 1027 1027 1027 1027 1027 1027 1027 
1027 1027 1027 1027 1027 1027 1027 1027 1027 
1027 1027 1027 1027 1027 1027 1027 1027 1027 
1027 1027 1027 1027 1027 1027 1027 1027 1027 
1027 1027 1027 1027 1027 1027 1027 1027 1027 
1027 1027 1027 1027 1027 1027 1027 1027 1027 
1027 1027 1027 1027 1027 1027 1027 1027 1027 
1027 1027 1027 1027 1027 1027 1027 1027 1027 
1027 1027 1027 1027 1027 1027 1027 1027 1027 
1027 1027 1027 1027 1027 1027 1027 1027 1027 
1027 1027 1027 1027 1027 1027 1027 1027 1027 
1027 1027 1027 1027 1027 1027 1027 1027 1027 
1027 1027 1027 1027 1027 1027 1027 1027 1027 
1027 1027 1027 1027 1027 1027 1027 1027 1027 
1027 1027 1027 1027 1027 1027 1027 1027 1027 
1027 1027 1027 1027 1027 1027 1027 1027 1027 
1027 1027 1027 1027 1027 1027 1027 1027 1027 
1027 1027 1027 1027 1027 1027 1027 1027 1027 
1027 1027 1027 1027 1027 1027 1027 1027 1027 
1027 1027 1027 1027 1027 1027 1027 1027 1027 
1027 1027 1027 1027 1027 1027 1027 1027 1027 
1027 1027 1027 1027 1027 1027 1027 1027 1027 
1027 1027 1027 1027 1027 1027 1027 1027 1027 
1027 1027 1027 1027 1027 1027 1027 1027 1027 
1027 1027 1027 1027 1027 1027 1027 1027 1027 
1027 1027 1027 1027 1027 1027 1027 1027 1027 
1027 1027 1027 1027 1027 1027 1027 1027 1027 
1027 1027 1027 1027 1027 1027 1027 1027 1027 
1027 1027 1027 1027 1027 1027 1027 1027 1027 
1027 1027 1027 1027 1027 1027 1027 1027 1027 
1027 1027 1027 1027 1027 1027 1027 1027 1027 
1027 1027 1027 1027 1027 1027 1027 1027 1027 
1027 1027 1027 1027 1027 1027 1027 1027 1027 
1027 1027 1027 1027 1027 1027 1027 1027 1027 
1027 1027 1027 1027 1027 1027 1027 1027 1027 
1027 1027 1027 1027 1027 1027 1027 1027 1027 
1027 1027 1027 1027 1027 1027 1027 1027 1027 
1027 1027 1027 1027 1027 1027 1027 1027 1027 
1027 1027 1027 1027 1027 1027 1027 1027 1027 
1027 1027 1027 1027 1027 1027 1027 1027 1027 
1027 1027 1027 1027 1027 1027 1027 1027 1027 
1027 1027 1027 1027 1027 1027 1027 1027 1027 
1027 1027 1027 1027 1027 1027 1027 1027 1027 
1027 1027 1027 1027 1027 1027 1027 1027 1027 
1027 1027 1027 1027 1027 1027 1027 1027 1027 
1027 1027 1027 1027 1027 1027 1027 1027 1027 
1027 1027 1027 1027 1027 1027 1027 1027 1027 
1027 1027 1027 1027 1027 1027 1027 1027 1027 
1027 1027 1027 1027 1027 1027 1027 1027 1027 
1027 1027 1027 1027 1027 1027 1027 1027 1027 
1027 1027 1027 1027 1027 1027 1027 1027 1027 
1027 1027 1027 1027 1027 1027 1027 1027 1027 
1027 1027 1027 1027 1027 1027 1027 1027 1027 
1027 1027 1027 1027 1027 1027 1027 1027 1027 
1027 1027 1027 1027 1027 1027 1027 1027 1027 
1027 1027 1027 1027 1027 1027 1027 1027 1027 
1027 1027 1027 1027 1027 1027 1027 1027 1027 
1027 1027 1027 1027 1027 1027 1027 1027 1027 
1027 1027 1027 1027 1027 1027 1027 1027 1027 
1027 1027 1027 1027 1027 1027 1027 1027 1027 
1027 1027 1027 1027 1027 1027 1027 1027 1027 
1027 1027 1027 1027 1027 1027 1027 1027 1027 
1027 1027 1027 1027 1027 1027 1027 1027 1027 
1027 1027 1027 1027 1027 1027 1027 1027 1027 
1027 1027 1027 1027 1027 1027 1027 1027 1027 
1027 1027 1027 1027 1027 1027 1027 1027 1027 
1027 1027 1027 1027 1027 1027 1027 1027 1027 
1027 1027 1027 1027 1027 1027 1027 1027 1027 
1027 1027 1027 1027 1027 1027 1027 1027 1027 
1027 1027 1027 1027 1027 1027 1027 1027 1027 
1027 1027 1027 1027 1027 1027 1027 1027 1027 
1027 1027 1027 1027 1027 1027 1027 1027 1027 
1027 1027 1027 1027 1027 1027 1027 1027 1027 
1027 1027 1027 1027 1027 1027 1027 1027 1027 
1027 1027 1027 1027 1027 1027 1027 1027 1027 
1027 1027 1027 1027 1027 1027 1027 1027 1027 
1027 1027 1027 1027 1027 1027 1027 1027 1027 
1027 1027 1027 1027 1027 1027 1027 1027 1027 
1027 1027 1027 1027 1027 1027 1027 1027 1027 
1027 1027 1027 1027 1027 1027 1027 1027 1027 
1027 1027 1027 1027 1027 1027 1027 1027 1027 
1027 1027 1027 1027 1027 1027 1027 1027 1027 
1027 1027 1027 1027 1027 1027 1027 1027 1027 
1027 1027 1027 1027 1027 1027 1027 1027 1027 
1027 1027 1027 1027 1027 1027 1027 1027 1027 
1027 1027 1027 1027 1027 1027 1027 1027 1027 
1027 1027 1027 1027 1027 1027 1027 1027 1027 
1027 1027 1027 1027 1027 1027 1027 1027 1027 
1027 1027 1027 1027 1027 1027 1027 1027 1027 
1027 1027 1027 1027 1027 1027 1027 1027 1027 
1027 1027 1027 1027 1027 1027 1027 1027 1027 
1027 1027 1027 1027 1027 1027 1027 1027 1027 
1027 1027 1027 1027 1027 1027 1027 1027 1027 
1027 1027 1027 1027 1027 1027 1027 1027 1027 
1027 1027 1027 1027 1027 1027 1027 1027 1027 
1027 1027 1027 1027 1027 1027 1027 1027 1027 
1027 1027 1027 1027 1027 1027 1027 1027 1027 
1027 1027 1027 1027 1027 1027 1027 1027 1027 
1027 1027 1027 1027 1027 1027 1027 1027 1027 
1027 1027 1027 1027 1027 1027 1027 1027 1027 
1027 1027 1027 1027 1027 1027 1027 1027 1027 
1027 1027 1027 1027 1027 1027 1027 1027 1027 
1027 1027 1027 1027 1027 1027 1027 1027 1027 
1027 1027 1027 1027 1027 1027 1027 1027 1027 
1027 1027 1027 1027 1027 1027 1027 1027 1027 
1027 1027 1027 1027 1027 1027 1027 1027 1027 
1027 1027 1027 1027 1027 1027 1027 1027 1027 
1027 1027 1027 1027 1027 1027 1027 1027 1027 
1027 1027 1027 1027 1027 1027 1027 1027 1027 
1027 1027 1027 1027 1027 1027 1027 1027 1027 
1027 1027 1027 1027 1027 1027 1027 1027 1027 
1027 1027 1027 1027 1027 1027 1027 1027 1027 
1027 1027 1027 1027 1027 1027 1027 1027 1027 
1027 1027 1027 1027 1027 1027 1027 1027 1027 
1027 1027 1027 1027 1027 1027 1027 1027 1027 
1027 1027 1027 1027 1027 1027 1027 1027 1027 
1027 1027 1027 1027 1027 1027 1027 1027 1027 
1027 1027 1027 1027 1027 1027 1027 1027 1027 
1027 1027 1027 1027 1027 1027 1027 1027 1027 
1027 1027 1027 1027 1027 1027 1027 1027 1027 
1027 1027 1027 1027 1027 1027 1027 1027 1027 
1027 1027 1027 1027 1027 1027 1027 1027 1027 
1027 1027 1027 1027 1027 1027 1027 1027 1027 
1027 1027 1027 1027 1027 1027 1027 1027 1027 
1027 1027 1027 1027 1027 1027 1027 1027 1027 
1027 1027 1027 1027 1027 1027 1027 1027 1027 
1027 1027 1027 1027 1027 1027 1027 1027 1027 
1027 1027 1027 1027 1027 1027 1027 1027 1027 
1027 1027 1027 1027 1027 1027 1027 1027 1027 
1027 1027 1027 1027 1027 1027 1027 1027 1027 
1027 1027 1027 1027 1027 1027 1027 1027 1027 
1027 1027 1027 1027 1027 1027 1027 1027 1027 
1027 1027 1027 1027 1027 1027 1027 1027 1027 
1027 1027 1027 1027 1027 1027 1027 1027 1027 
1027 1027 1027 1027 1027 1027 1027 1027 1027 
1027 1027 1027 1027 1027 1027 1027 1027 1027 
1027 1027 1027 1027 1027 1027 1027 1027 1027 
1027 1027 1027 1027 1027 1027 1027 1027 1027 
1027 1027 1027 1027 1027 1027 1027 1027 1027 
1027 1027 1027 1027 1027 1027 1027 1027 1027 
1027 1027 1027 1027 1027 1027 1027 1027 1027 
1027 1027 1027 1027 1027 1027 1027 1027 1027 
1027 1027 1027 1027 1027 1027 1027 1027 1027 
1027 1027 1027 1027 1027 1027 1027 1027 1027 
1027 1027 1027 1027 1027 1027 1027 1027 1027 
1027 1027 1027 1027 1027 1027 1027 1027 1027 
1027 1027 1027 1027 1027 1027 1027 1027 1027 
1027 1027 1027 1027 1027 1027 1027 1027 1027 
1027 1027 1027 1027 1027 1027 1027 1027 1027 
1027 1027 1027 1027 1027 1027 1027 1027 1027 
1027 1027 1027 1027 1027 1027 1027 1027 1027 
1027 1027 1027 1027 1027 1027 1027 1027 1027 
1027 1027 1027 1027 1027 1027 1027 1027 1027 
1027 1027 1027 1027 1027 1027 1027 1027 1027 
1027 1027 1027 1027 1027 1027 1027 1027 1027 
1027 1027 1027 1027 1027 1027 1027 1027 1027 
1027 1027 1027 1027 1027 1027 1027 1027 1027 
1027 1027 1027 1027 1027 1027 1027 1027 1027 
1027 1027 1027 1027 1027 1027 1027 1027 1027 
1027 1027 1027 1027 1027 1027 1027 1027 1027 
1027 1027 1027 1027 1027 1027 1027 1027 1027 
1027 1027 1027 1027 1027 1027 1027 1027 1027 
1027 1027 1027 1027 1027 1027 1027 1027 1027 
1027 1027 1027 1027 1027 1027 1027 1027 1027 
1027 1027 1027 1027 1027 1027 1027 1027 1027 
1027 1027 1027 1027 1027 1027 1027 1027 1027 
1027 1027 1027 1027 1027 1027 1027 1027 1027 
1027 1027 1027 1027 1027 1027 1027 1027 1027 
1027 1027 1027 1027 1027 1027 1027 1027 1027 
1027 1027 1027 1027 1027 1027 1027 1027 1027 
1027 1027 1027 1027 1027 1027 1027 1027 1027 
1027 1027 1027 1027 1027 1027 1027 1027 1027 
1027 1027 1027 1027 1027 1027 1027 1027 1027 
1027 1027 1027 1027 1027 1027 1027 1027 1027 
1027 1027 1027 1027 1027 1027 1027 1027 1027 
1027 1027 1027 1027 1027 1027 1027 1027 1027 
1027 1027 1027 1027 1027 1027 1027 1027 1027 
1027 1027 1027 1027 1027 1027 1027 1027 1027 
1027 1027 1027 1027 1027 1027 1027 1027 1027 
1027 1027 1027 1027 1027 1027 1027 1027 1027 
1027 1027 1027 1027 1027 1027 1027 1027 1027 
1027 1027 1027 1027 1027 1027 1027 1027 1027 
1027 1027 1027 1027 1027 1027 1027 1027 1027 
1027 1027 1027 1027 1027 1027 1027 1027 1027 
1027 1027 1027 1027 1027 1027 1027 1027 1027 
1027 1027 1027 1027 1027 1027 1027 1027 1027 
1027 1027 1027 1027 1027 1027 1027 1027 1027 
1027 1027 1027 1027 1027 1027 1027 1027 1027 
1027 1027 1027 1027 1027 1027 1027 1027 1027 
1027 1027 1027 1027 1027 1027 1027 1027 1027 
1027 1027 1027 1027 1027 1027 1027 1027 1027 
1027 1027 1027 1027 1027 1027 1027 1027 1027 
1027 1027 1027 1027 1027 1027 1027 1027 1027 
1027 1027 1027 1027 1027 1027 1027 1027 1027 
1027 1027 1027 1027 1027 1027 1027 1027 1027 
1027 1027 1027 1027 1027 1027 1027 1027 1027 
1027 1027 1027 1027 1027 1027 1027 1027 1027 
1027 1027 1027 1027 1027 1027 1027 1027 1027 
1027 1027 1027 1027 1027 1027 1027 1027 1027 
1027 1027 1027 1027 1027 1027 1027 1027 1027 
1027 1027 1027 1027 1027 1027 1027 1027 1027 
1027 1027 1027 1027 1027 1027 1027 1027 1027 
1027 1027 1027 1027 1027 1027 1027 1027 1027 
1027 1027 1027 1027 1027 1027 1027 1027 1027 
1027 1027 1027 1027 1027 1027 1027 1027 1027 
1027 1027 1027 1027 1027 1027 1027 1027 1027 
1027 1027 1027 1027 1027 1027 1027 1027 1027 
1027 1027 1027 1027 1027 1027 1027 1027 1027 
1027 1027 1027 1027 1027 1027 1027 1027 1027 
1027 1027 1027 1027 1027 1027 1027 1027 1027 
1027 1027 1027 1027 1027 1027 1027 1027 1027 
1027 1027 1027 1027 1027 1027 1027 1027 1027 
1027 1027 1027 1027 1027 1027 1027 1027 1027 
1027 1027 1027 1027 1027 1027 1027 1027 1027 
1027 1027 1027 1027 1027 1027 1027 1027 1027 
1027 1027 1027 1027 1027 1027 1027 1027 1027 
1027 1027 1027 1027 1027 1027 1027 1027 1027 
1027 1027 1027 1027 1027 1027 1027 1027 1027 
1027 1027 1027 1027 1027 1027 1027 1027 1027 
1027 1027 1027 1027 1027 1027 1027 1027 1027 
1027 1027 1027 1027 1027 1027 1027 1027 1027 
1027 1027 1027 1027 1027 1027 1027 1027 1027 
1027 1027 1027 1027 1027 1027 1027 1027 1027 
1027 1027 1027 1027 1027 1027 1027 1027 1027 
1027 1027 1027 1027 1027 1027 1027 1027 1027 
1027 1027 1027 1027 1027 1027 1027 1027 1027 
1027 1027 1027 1027 1027 1027 1027 1027 1027 
1027 1027 1027 1027 1027 1027 1027 1027 1027 
1027 1027 1027 1027 1027 1027 1027 1027 1027 
1027 1027 1027 1027 1027 1027 1027 1027 1027 
1027 1027 1027 1027 1027 1027 1027 1027 1027 
1027 1027 1027 1027 1027 1027 1027 1027 1027 
1027 1027 1027 1027 1027 1027 1027 1027 1027 
1027 1027 1027 1027 1027 1027 1027 1027 1027 
1027 1027 1027 1027 1027 1027 1027 1027 1027 
1027 1027 1027 1027 1027 1027 1027 1027 1027 
1027 1027 1027 1027 1027 1027 1027 1027 1027 
1027 1027 1027 1027 1027 1027 1027 1027 1027 
1027 1027 1027 1027 1027 1027 1027 1027 1027 
1027 1027 1027 1027 1027 1027 1027 1027 1027 
1027 1027 1027 1027 1027 1027 1027 1027 1027 
1027 1027 1027 1027 1027 1027 1027 1027 1027 
1027 1027 1027 1027 1027 1027 1027 1027 1027 
1027 1027 1027 1027 1027 1027 1027 1027 1027 
1027 1027 1027 1027 1027 1027 1027 1027 1027 
1027 1027 1027 1027 1027 1027 1027 1027 1027 
1027 1027 1027 1027 1027 1027 1027 1027 1027 
1027 1027 1027 1027 1027 1027 1027 1027 1027 
1027 1027 1027 1027 1027 1027 1027 1027 1027 
1027 1027 1027 1027 1027 1027 1027 1027 1027 
1027 1027 1027 1027 1027 1027 1027 1027 1027 
1027 1027 1027 1027 1027 1027 1027 1027 1027 
1027 1027 1027 1027 1027 1027 1027 1027 1027 
1027 1027 1027 1027 1027 1027 1027 1027 1027 
1027 1027 1027 1027 1027 1027 1027 1027 1027 
1027 1027 1027 1027 1027 1027 1027 1027 1027 
1027 1027 1027 1027 1027 1027 1027 1027 1027 
1027 1027 1027 1027 1027 1027 1027 1027 1027 
1027 1027 1027 1027 1027 1027 1027 1027 1027 
1027 1027 1027 1027 1027 1027 1027 1027 1027 
1027 1027 1027 1027 1027 1027 1027 1027 1027 
1027 1027 1027 1027 1027 1027 1027 1027 1027 
1027 1027 1027 1027 1027 1027 1027 1027 1027 
1027 1027 1027 1027 1027 1027 1027 1027 1027 
1027 1027 1027 1027 1027 1027 1027 1027 1027 
1027 1027 1027 1027 1027 1027 1027 1027 1027 
1027 1027 1027 1027 1027 1027 1027 1027 1027 
1027 1027 1027 1027 1027 1027 1027 1027 1027 
1027 1027 1027 1027 1027 1027 1027 1027 1027 
1027 1027 1027 1027 1027 1027 1027 1027 1027 
1027 1027 1027 1027 1027 1027 1027 1027 1027 
1027 1027 1027 1027 1027 1027 1027 1027 1027 
1027 1027 1027 1027 1027 1027 1027 1027 1027 
1027 1027 1027 1027 1027 1027 1027 1027 1027 
1027 1027 1027 1027 1027 1027 1027 1027 1027 
1027 1027 1027 1027 1027 1027 1027 1027 1027 
1027 1027 1027 1027 1027 1027 1027 1027 1027 
1027 1027 1027 1027 1027 1027 1027 1027 1027 
1027 1027 1027 1027 1027 1027 1027 1027 1027 
1027 1027 1027 1027 1027 1027 1027 1027 1027 
1027 1027 1027 1027 1027 1027 1027 1027 1027 
1027 1027 1027 1027 1027 1027 1027 1027 1027 
1027 1027 1027 1027 1027 1027 1027 1027 1027 
1027 1027 1027 1027 1027 1027 1027 1027 1027 
1027 1027 1027 1027 1027 1027 1027 1027 1027 
1027 1027 1027 1027 1027 1027 1027 1027 1027 
1027 1027 1027 1027 1027 1027 1027 1027 1027 
1027 1027 1027 1027 1027 1027 1027 1027 1027 
1027 1027 1027 1027 1027 1027 1027 1027 1027 
1027 1027 1027 1027 1027 1027 1027 1027 1027 
1027 1027 1027 1027 1027 1027 1027 1027 1027 
1027 1027 1027 1027 1027 1027 1027 1027 1027 
1027 1027 1027 1027 1027 1027 1027 1027 1027 
1027 1027 1027 1027 1027 1027 1027 1027 1027 
1027 1027 1027 1027 1027 1027 1027 1027 1027 
1027 1027 1027 1027 1027 1027 1027 1027 1027 
1027 1027 1027 1027 1027 1027 1027 1027 1027 
1027 1027 1027 1027 1027 1027 1027 1027 1027 
1027 1027 1027 1027 1027 1027 1027 1027 1027 
1027 1027 1027 1027 1027 1027 1027 1027 1027 
1027 1027 1027 1027 1027 1027 1027 1027 1027 
1027 1027 1027 1027 1027 1027 1027 1027 1027 
1027 1027 1027 1027 1027 1027 1027 1027 1027 
1027 1027 1027 1027 1027 1027 1027 1027 1027 
1027 1027 1027 1027 1027 1027 1027 1027 1027 
1027 1027 1027 1027 1027 1027 1027 1027 1027 
1027 1027 1027 1027 1027 1027 1027 1027 1027 
1027 1027 1027 1027 1027 1027 1027 1027 1027 
1027 1027 1027 1027 1027 1027 1027 1027 1027 
1027 1027 1027 1027 1027 1027 1027 1027 1027 
1027 1027 1027 1027 1027 1027 1027 1027 1027 
1027 1027 1027 1027 1027 1027 1027 1027 1027 
1027 1027 1027 1027 1027 1027 1027 1027 1027 
1027 1027 1027 1027 1027 1027 1027 1027 1027 
1027 1027 1027 1027 1027 1027 1027 1027 1027 
1027 1027 1027 1027 1027 1027 1027 1027 1027 
1027 1027 1027 1027 1027 1027 1027 1027 1027 
1027 1027 1027 1027 1027 1027 1027 1027 1027 
1027 1027 1027 1027 1027 1027 1027 1027 1027 
1027 1027 1027 1027 1027 1027 1027 1027 1027 
1027 1027 1027 1027 1027 1027 1027 1027 1027 
1027 1027 1027 1027 1027 1027 1027 1027 1027 
1027 1027 1027 1027 1027 1027 1027 1027 1027 
1027 1027 1027 1027 1027 1027 1027 1027 1027 
1027 1027 1027 1027 1027 1027 1027 1027 1027 
1027 1027 1027 1027 1027 1027 1027 1027 1027 
1027 1027 1027 1027 1027 1027 1027 1027 1027 
1027 1027 1027 1027 1027 1027 1027 1027 1027 
1027 1027 1027 1027 1027 1027 1027 1027 1027 
1027 1027 1027 1027 1027 1027 1027 1027 1027 
1027 1027 1027 1027 1027 1027 1027 1027 1027 
1027 1027 1027 1027 1027 1027 1027 1027 1027 
1027 1027 1027 1027 1027 1027 1027 1027 1027 
1027 1027 1027 1027 1027 1027 1027 1027 1027 
1027 1027 1027 1027 1027 1027 1027 1027 1027 
1027 1027 1027 1027 1027 1027 1027 1027 1027 
1027 1027 1027 1027 1027 1027 1027 1027 1027 
1027 1027 1027 1027 1027 1027 1027 1027 1027 
1027 1027 1027 1027 1027 1027 1027 1027 1027 
1027 1027 1027 1027 1027 1027 1027 1027 1027 
1027 1027 1027 1027 1027 1027 1027 1027 1027 
1027 1027 1027 1027 1027 1027 1027 1027 1027 
1027 1027 1027 1027 1027 1027 1027 1027 1027 
1027 1027 1027 1027 1027 1027 1027 1027 1027 
1027 1027 1027 1027 1027 1027 1027 1027 1027 
1027 1027 1027 1027 1027 1027 1027 1027 1027 
1027 1027 1027 1027 1027 1027 1027 1027 1027 
1027 1027 1027 1027 1027 1027 1027 1027 1027 
1027 1027 1027 1027 1027 1027 1027 1027 1027 
1027 1027 1027 1027 1027 1027 1027 1027 1027 
1027 1027 1027 1027 1027 1027 1027 1027 1027 
1027 1027 1027 1027 1027 1027 1027 1027 1027 
1027 1027 1027 1027 1027 1027 1027 1027 1027 
1027 1027 1027 1027 1027 1027 1027 1027 1027 
1027 1027 1027 1027 1027 1027 1027 1027 1027 
1027 1027 1027 1027 1027 1027 1027 1027 1027 
1027 1027 1027 1027 1027 1027 1027 1027 1027 
1027 1027 1027 1027 1027 1027 1027 1027 1027 
1027 1027 1027 1027 1027 1027 1027 1027 1027 
1027 1027 1027 1027 1027 1027 1027 1027 1027 
1027 1027 1027 1027 1027 1027 1027 1027 1027 
1027 1027 1027 1027 1027 1027 1027 1027 1027 
1027 1027 1027 1027 1027 1027 1027 1027 1027 
1027 1027 1027 1027 1027 1027 1027 1027 1027 
1027 1027 1027 1027 1027 1027 1027 1027 1027 
1027 1027 1027 1027 1027 1027 1027 1027 1027 
1027 1027 1027 1027 1027 1027 1027 1027 1027 
1027 1027 1027 1027 1027 1027 1027 1027 1027 
1027 1027 1027 1027 1027 1027 1027 1027 1027 
1027 1027 1027 1027 1027 1027 1027 1027 1027 
1027 1027 1027 1027 1027 1027 1027 1027 1027 
1027 1027 1027 1027 1027 1027 1027 1027 1027 
1027 1027 1027 1027 1027 1027 1027 1027 1027 
1027 1027 1027 1027 1027 1027 1027 1027 1027 
1027 1027 1027 1027 1027 1027 1027 1027 1027 
1027 1027 1027 1027 1027 1027 1027 1027 1027 
1027 1027 1027 1027 1027 1027 1027 1027 1027 
1027 1027 1027 1027 1027 1027 1027 1027 1027 
1027 1027 1027 1027 1027 1027 1027 1027 1027 
1027 1027 1027 1027 1027 1027 1027 1027 1027 
1027 1027 1027 1027 1027 1027 1027 1027 1027 
1027 1027 1027 1027 1027 1027 1027 1027 1027 
1027 1027 1027 1027 1027 1027 1027 1027 1027 
1027 1027 1027 1027 1027 1027 1027 1027 1027 
1027 1027 1027 1027 1027 1027 1027 1027 1027 
1027 1027 1027 1027 1027 1027 1027 1027 1027 
1027 1027 1027 1027 1027 1027 1027 1027 1027 
1027 1027 1027 1027 1027 1027 1027 1027 1027 
1027 1027 1027 1027 1027 1027 1027 1027 1027 
1027 1027 1027 1027 1027 1027 1027 1027 1027 
1027 1027 1027 1027 1027 1027 1027 1027 1027 
1027 1027 1027 1027 1027 1027 1027 1027 1027 
1027 1027 1027 1027 1027 1027 1027 1027 1027 
1027 1027 1027 1027 1027 1027 1027 1027 1027 
1027 1027 1027 1027 1027 1027 1027 1027 1027 
1027 1027 1027 1027 1027 1027 1027 1027 1027 
1027 1027 1027 1027 1027 1027 1027 1027 1027 
1027 1027 1027 1027 1027 1027 1027 1027 1027 
1027 1027 1027 1027 1027 1027 1027 1027 1027 
1027 1027 1027 1027 1027 1027 1027 1027 1027 