# vtk DataFile Version 4.0
vtk output
ASCII
DATASET POLYDATA
POINTS 14838 float
-38.2846 21.8867 -36.1507 -37.9248 21.4073 -35.4991 -37.6006 21.4505 -36.1117 
-39.1434 21.8853 -36.0668 -38.716 21.5452 -35.4963 -39.774 21.7427 -36.2728 
-39.6766 21.5256 -35.5859 -40.309 21.4068 -35.8635 -37.9373 21.9367 -36.8932 
-37.3848 21.2801 -37.1982 -38.789 21.9083 -37.0036 -39.6064 21.5949 -36.8791 
-40.2266 21.4195 -36.444 -37.9764 21.7969 -37.7685 -37.6524 21.2965 -38.1326 
-38.4976 21.4425 -38.1624 -39.1633 21.4733 -37.5088 -37.9488 21.4731 -38.349 
-39.2067 20.6785 -33.1906 -38.9244 20.4859 -32.8299 -38.7143 20.5773 -33.1641 
-39.3139 20.2787 -33.1456 -38.9624 20.8746 -34.0514 -38.4847 20.4663 -33.8664 
-40.0263 20.3281 -33.3939 -40.1132 20.8627 -33.9704 -41.2759 20.8893 -34.1511 
-40.9535 20.378 -33.6155 -42.2024 20.8179 -34.2751 -41.7658 20.5064 -33.7486 
-42.533 20.3402 -33.8166 -38.2361 20.9367 -34.8001 -38.1218 20.1258 -34.5589 
-37.6005 20.7169 -35.2742 -39.1045 21.1876 -34.9851 -40.051 21.1337 -35.0488 
-41.0355 21.0351 -34.9967 -41.8782 21.0091 -34.8754 -42.8933 20.5955 -34.422 
-42.7016 20.7761 -35.1396 -43.304 20.4378 -34.8785 -37.2815 20.4545 -36.1686 
-40.9096 21.0955 -36.1872 -42.0067 20.8875 -35.9277 -42.7471 20.5761 -35.9736 
-43.2146 20.4138 -35.4893 -36.963 20.7514 -36.8747 -36.9753 20.3181 -36.7601 
-36.8032 20.5078 -37.0347 -40.1112 21.1706 -37.2612 -40.9971 20.988 -37.1097 
-41.6841 20.8111 -37.1217 -42.4895 20.4976 -36.7452 -36.9654 20.6666 -37.313 
-37.3887 20.3289 -37.9808 -39.3172 21.1462 -38.1807 -39.9946 21.023 -38.1164 
-40.7893 20.8345 -38.0374 -41.5942 20.5553 -37.9219 -42.1728 20.4379 -37.4943 
-38.0176 20.8639 -38.6636 -38.8189 20.878 -38.8997 -38.4176 20.5069 -39.177 
-39.7945 20.8111 -38.8806 -40.4644 20.4881 -38.9319 -41.1971 20.1762 -38.5277 
-39.0337 20.1752 -39.5807 -39.9854 20.2556 -39.3957 -38.8289 20.3145 -33.1616 
-43.0516 19.1785 -32.6147 -42.5041 19.5158 -33.0047 -43.0638 19.8024 -33.3456 
-43.6081 19.3381 -32.9207 -38.9827 19.9691 -33.8015 -39.8566 19.7326 -33.493 
-39.4316 19.4107 -33.8574 -40.7281 19.6407 -33.3752 -41.868 19.7642 -33.3436 
-43.308 20.202 -34.2187 -43.8393 19.5782 -33.4098 -43.8786 19.7959 -34.0863 
-44.3511 19.4399 -33.8808 -38.2358 19.3201 -34.6847 -37.6273 19.6335 -35.2859 
-38.7594 19.5769 -34.2765 -43.7988 19.9729 -35.172 -44.5319 19.4817 -34.7172 
-37.4393 19.4916 -35.9745 -43.1771 20.1889 -36.1563 -43.7382 19.76 -36.2438 
-44.4568 19.4563 -35.6772 -36.9777 20.2333 -37.1984 -37.4197 19.5527 -36.8487 
-42.9414 19.9829 -37.2215 -43.6654 19.5422 -36.9877 -44.1734 19.3964 -36.4383 
-37.5749 19.444 -37.8661 -42.0886 20.1345 -38.0087 -42.7428 19.7498 -38.078 
-43.5116 19.308 -37.9816 -37.9835 20.1234 -39.0778 -37.6825 19.5346 -38.7602 
-40.5726 19.814 -39.1265 -41.2279 19.4824 -38.8428 -42.0956 19.581 -38.5882 
-42.9625 19.3449 -38.5718 -38.2117 19.6469 -39.6052 -38.8165 19.6903 -40.1098 
-38.5413 19.3939 -40.0257 -39.2891 19.4006 -39.9335 -40.0883 19.428 -39.57 
-38.9432 19.4463 -40.2634 -42.7767 18.743 -32.1787 -43.0186 18.469 -31.8773 
-42.7478 18.4465 -31.9863 -43.2207 18.4736 -32.1364 -40.1346 18.9672 -33.2539 
-39.9347 18.1466 -32.7256 -39.4292 18.5691 -33.1809 -41.3019 18.9856 -33.0161 
-41.0155 18.2831 -32.72 -42.1719 18.3517 -32.4418 -42.2143 19.1149 -32.7837 
-44.3619 19.0704 -33.166 -43.8828 18.4309 -32.5414 -45.2224 18.802 -33.269 
-44.9128 18.3558 -32.7047 -45.5763 18.3557 -32.9128 -38.8378 18.431 -33.5967 
-38.4902 18.4364 -34.2543 -39.0143 18.9293 -33.9895 -45.066 19.1249 -34.1293 
-45.8631 18.5916 -33.4025 -45.8698 18.814 -34.0679 -46.3503 18.4634 -33.9439 
-37.8998 18.8728 -35.2305 -38.2791 18.6577 -34.8039 -45.1729 19.144 -35.2663 
-45.8909 18.8693 -35.0388 -46.5013 18.3869 -34.9423 -37.746 18.2641 -35.4105 
-37.6527 18.6 -35.994 -44.8557 19.1311 -36.237 -45.7034 18.8206 -36.1227 
-46.3204 18.36 -35.9624 -37.8977 18.5401 -36.7172 -37.9491 18.8787 -37.3749 
-38.2107 18.1981 -37.0784 -44.2427 19.1697 -37.2276 -45.1243 18.8716 -37.0773 
-45.6706 18.4442 -37.1326 -46.0877 18.3021 -36.65 -38.118 18.9374 -38.3784 
-38.443 18.2192 -37.8315 -44.1001 18.9937 -38.0058 -44.6724 18.7898 -37.9579 
-45.2684 18.503 -37.8164 -38.215 19.1703 -39.3481 -38.9309 18.2998 -38.5805 
-38.9431 18.8509 -39.2548 -39.5512 18.2913 -39.0161 -40.8888 19.1403 -39.1945 
-41.7155 18.9681 -39.0919 -42.6915 18.9335 -39.0826 -43.4579 18.7716 -38.9141 
-44.2437 18.4389 -38.6109 -44.9883 18.2462 -38.3472 -38.8038 19.1997 -39.9195 
-39.8661 18.7253 -39.4681 -40.9906 18.486 -39.372 -42.2612 18.3365 -39.4493 
-43.2365 18.2207 -39.4192 -42.8932 18.226 -32.0482 -38.8844 17.991 -33.104 
-39.1304 17.4705 -32.5021 -38.574 17.1407 -33.0106 -39.977 17.3613 -32.4014 
-40.7607 17.6026 -32.5829 -41.6723 17.3882 -32.4485 -42.9277 17.7124 -32.3108 
-43.8142 17.4873 -32.3515 -44.6848 17.6187 -32.3808 -46.3303 18.0823 -33.1804 
-45.7149 17.676 -32.4855 -47.0311 17.7471 -33.2589 -46.9025 17.296 -32.4911 
-47.5076 17.3161 -33.0004 -38.2133 17.388 -33.6303 -37.6028 17.2598 -34.351 
-38.1189 17.9947 -34.0385 -46.9007 17.9995 -34.1602 -47.532 17.4993 -33.7537 
-37.2915 17.7601 -34.9944 -36.9905 17.3179 -34.8392 -36.8021 17.4966 -35.0286 
-37.9718 18.2325 -34.7996 -46.9323 17.8263 -35.1514 -47.4279 17.4923 -34.7125 
-36.9732 17.3232 -35.3103 -37.3177 17.404 -35.8684 -46.7191 17.7615 -35.8839 
-47.1668 17.4205 -35.5013 -37.8431 17.5699 -36.5642 -38.4602 17.4436 -37.056 
-45.9709 17.8939 -37.2565 -46.5141 17.4316 -36.9387 -38.7068 17.5021 -37.8206 
-45.5657 17.8218 -37.9342 -46.0614 17.321 -37.6835 -38.9336 17.7213 -38.31 
-39.8092 17.5102 -38.5749 -40.3297 18.0113 -39.0799 -40.9395 17.3077 -38.7617 
-41.0968 17.7917 -39.1182 -41.5863 17.3103 -38.9922 -43.8837 18.0976 -39.1886 
-44.3607 17.5846 -39.0445 -45.0743 17.3222 -38.6028 -41.8371 17.7359 -39.3712 
-42.9397 17.2738 -39.7229 -43.8706 17.3957 -39.4247 -40.0149 16.82 -31.1557 
-39.7708 16.2618 -30.6773 -39.343 16.6169 -31.1316 -40.7225 16.7266 -31.3072 
-40.8578 16.2298 -30.4574 -41.3845 16.3578 -30.9617 -39.325 16.9677 -31.8281 
-38.9379 16.5533 -31.4778 -38.5828 16.5798 -32.1916 -40.1747 16.9287 -31.9285 
-40.7161 16.5667 -31.9231 -41.1342 16.4025 -31.4993 -42.2054 16.2503 -31.6676 
-41.58 16.4963 -32.0299 -42.3123 16.8445 -32.0677 -43.268 16.9448 -32.0618 
-42.984 16.2907 -31.7071 -44.2727 16.9534 -32.0527 -43.9751 16.2959 -31.7191 
-45.2878 16.9903 -32.0271 -44.9963 16.3074 -31.6881 -46.2871 16.9704 -32.0093 
-46.0177 16.3346 -31.6666 -46.9353 16.846 -31.9892 -46.9293 16.3318 -31.7126 
-47.4892 16.4695 -32.0041 -38.3268 16.4665 -33.2202 -40.8313 16.8176 -32.3439 
-48.1762 16.9393 -33.3226 -47.8269 16.7254 -32.5528 -48.4679 16.4344 -32.8401 
-36.8376 16.2959 -33.9115 -36.6907 16.2367 -34.3607 -36.9604 16.6337 -34.118 
-38.0264 16.9448 -33.9916 -37.3249 16.3482 -33.8657 -38.2607 16.7103 -33.7472 
-48.0154 17.1609 -34.1708 -48.8503 16.548 -33.4171 -48.6909 16.7697 -34.1278 
-49.3965 16.2275 -34.052 -36.859 17.1921 -35.0661 -37.1417 16.4534 -34.3522 
-37.8927 16.6195 -34.3181 -37.2738 16.4947 -35.2675 -47.9363 17.005 -35.1791 
-48.6907 16.5943 -34.9209 -49.1205 16.3532 -34.5823 -36.8821 16.3371 -35.8533 
-36.8107 16.3524 -36.1151 -36.9526 16.6115 -35.9684 -39.0037 16.7891 -36.2486 
-38.5011 16.3989 -36.0555 -38.9412 16.1027 -35.7134 -39.8416 16.4937 -35.6895 
-39.9295 16.7989 -36.2121 -40.6725 16.4007 -35.5655 -40.7419 16.7096 -36.0965 
-41.2574 16.4968 -35.8618 -47.1257 17.2033 -36.1368 -47.7141 16.7857 -36.255 
-48.519 16.3117 -35.9417 -37.1971 16.667 -36.3108 -37.9733 16.6299 -36.3861 
-39.2121 16.9826 -37.2192 -39.6805 16.5919 -36.8791 -40.2982 16.3547 -36.6071 
-41.1902 16.2787 -36.3655 -47.1386 16.8801 -36.8383 -47.613 16.3006 -37.1238 
-48.0653 16.324 -36.6341 -39.1749 17.2397 -38.0922 -39.9535 16.3018 -37.4343 
-39.8722 16.8163 -38.01 -40.5371 16.2407 -37.9692 -45.8424 17.0475 -38.175 
-46.4113 16.6998 -37.9161 -46.9998 16.4675 -37.5742 -40.8981 16.5702 -38.3878 
-41.7219 16.6466 -38.7492 -42.2038 16.9535 -39.2738 -42.2415 16.2131 -39.0706 
-44.4978 16.7336 -39.0891 -45.155 16.197 -38.7053 -46.0526 16.3239 -38.4295 
-42.7352 16.3736 -39.7938 -42.9871 16.7546 -40.1529 -43.2308 16.6141 -40.1216 
-43.752 16.2989 -39.6471 -43.0121 16.4828 -40.2555 -41.0192 15.8034 -29.9361 
-40.9628 15.2817 -29.7726 -40.6875 15.6159 -29.9936 -41.4136 15.3071 -30.0117 
-38.8915 16.1357 -31.155 -39.318 15.375 -30.7355 -38.5814 15.5605 -31.1567 
-40.1552 15.4975 -30.3167 -41.8445 16.0175 -31.3366 -41.9518 15.566 -30.5956 
-42.5801 15.3127 -30.9651 -38.183 15.8642 -31.8185 -38.1073 15.1285 -31.5709 
-37.6986 15.4471 -32.2582 -41.1368 16.2924 -31.9264 -42.9118 15.5504 -31.3737 
-43.7595 15.6151 -31.5345 -44.6816 15.4065 -31.4296 -45.7311 15.5928 -31.3873 
-46.7308 15.6056 -31.3999 -48.3581 16.0387 -32.1698 -47.7234 15.6228 -31.5201 
-49.293 15.8384 -32.1901 -48.7344 15.4593 -31.5143 -50.0131 15.7291 -32.2621 
-49.6493 15.4602 -31.5878 -50.3474 15.4079 -31.9462 -37.8258 15.9983 -32.9912 
-37.3469 15.3288 -32.7759 -49.158 16.1657 -33.0554 -49.9063 15.8665 -33.0423 
-50.5288 15.497 -32.8144 -37.019 15.6221 -33.401 -36.5207 15.4972 -33.9518 
-37.7695 16.2988 -34.1534 -49.8411 15.9299 -33.806 -50.4906 15.3001 -33.9754 
-37.0105 16.0499 -34.8427 -36.6176 15.3156 -34.7366 -41.384 15.9861 -35.225 
-40.6466 15.6582 -35.0978 -40.9407 15.1318 -34.7015 -41.8539 15.4934 -34.7061 
-42.2932 15.9443 -35.1784 -42.7413 15.3918 -34.5015 -43.1593 15.8962 -35.0383 
-43.9369 15.3563 -34.5047 -43.7906 15.7871 -35.3282 -44.5537 15.1938 -35.1842 
-49.0506 16.083 -35.329 -49.5286 15.6075 -35.048 -49.9816 15.49 -34.5508 
-37.1897 16.246 -36.0398 -37.0751 15.5871 -35.2802 -37.9581 16.1187 -35.8831 
-37.9102 15.5743 -35.4952 -38.8694 15.4133 -35.4073 -39.8679 15.7193 -35.3429 
-41.839 16.1551 -35.9145 -42.8719 15.8985 -35.8503 -43.6446 15.604 -35.9645 
-44.1474 15.3977 -35.7019 -49.0196 15.8747 -35.9548 -49.3205 15.3653 -35.9837 
-39.9049 16.2232 -37.0177 -40.3986 15.7576 -37.0739 -41.0684 15.4348 -36.7566 
-42.0817 15.5131 -36.483 -43.2078 15.2379 -36.4162 -48.035 15.9827 -37.0791 
[...]
CELL_DATA 29700
SCALARS scalars float
LOOKUP_TABLE default
1015 1015 1015 1015 1015 1015 1015 1015 1015 
1015 1015 1015 1015 1015 1015 1015 1015 1015 
1015 1015 1015 1015 1015 1015 1015 1015 1015 
1015 1015 1015 1015 1015 1015 1015 1015 1015 
1015 1015 1015 1015 1015 1015 1015 1015 1015 
1015 1015 1015 1015 1015 1015 1015 1015 1015 
1015 1015 1015 1015 1015 1015 1015 1015 1015 
1015 1015 1015 1015 1015 1015 1015 1015 1015 
1015 1015 1015 1015 1015 1015 1015 1015 1015 
1015 1015 1015 1015 1015 1015 1015 1015 1015 
1015 1015 1015 1015 1015 1015 1015 1015 1015 
1015 1015 1015 1015 1015 1015 1015 1015 1015 
1015 1015 1015 1015 1015 1015 1015 1015 1015 
1015 1015 1015 1015 1015 1015 1015 1015 1015 
1015 1015 1015 1015 1015 1015 1015 1015 1015 
1015 1015 1015 1015 1015 1015 1015 1015 1015 
1015 1015 1015 1015 1015 1015 1015 1015 1015 
1015 1015 1015 1015 1015 1015 1015 1015 1015 
1015 1015 1015 1015 1015 1015 1015 1015 1015 
1015 1015 1015 1015 1015 1015 1015 1015 1015 
1015 1015 1015 1015 1015 1015 1015 1015 1015 
1015 1015 1015 1015 1015 1015 1015 1015 1015 
1015 1015 1015 1015 1015 1015 1015 1015 1015 
1015 1015 1015 1015 1015 1015 1015 1015 1015 
1015 1015 1015 1015 1015 1015 1015 1015 1015 
1015 1015 1015 1015 1015 1015 1015 1015 1015 
1015 1015 1015 1015 1015 1015 1015 1015 1015 
1015 1015 1015 1015 1015 1015 1015 1015 1015 
1015 1015 1015 1015 1015 1015 1015 1015 1015 
1015 1015 1015 1015 1015 1015 1015 1015 1015 
1015 1015 1015 1015 1015 1015 1015 1015 1015 
1015 1015 1015 1015 1015 1015 1015 1015 1015 
1015 1015 1015 1015 1015 1015 1015 1015 1015 
1015 1015 1015 1015 1015 1015 1015 1015 1015 
1015 1015 1015 1015 1015 1015 1015 1015 1015 
1015 1015 1015 1015 1015 1015 1015 1015 1015 
1015 1015 1015 1015 1015 1015 1015 1015 1015 
1015 1015 1015 1015 1015 1015 1015 1015 1015 
1015 1015 1015 1015 1015 1015 1015 1015 1015 
1015 1015 1015 1015 1015 1015 1015 1015 1015 
1015 1015 1015 1015 1015 1015 1015 1015 1015 
1015 1015 1015 1015 1015 1015 1015 1015 1015 
1015 1015 1015 1015 1015 1015 1015 1015 1015 
1015 1015 1015 1015 1015 1015 1015 1015 1015 
1015 1015 1015 1015 1015 1015 1015 1015 1015 
1015 1015 1015 1015 1015 1015 1015 1015 1015 
1015 1015 1015 1015 1015 1015 1015 1015 1015 
1015 1015 1015 1015 1015 1015 1015 1015 1015 
1015 1015 1015 1015 1015 1015 1015 1015 1015 
1015 1015 1015 1015 1015 1015 1015 1015 1015 
1015 1015 1015 1015 1015 1015 1015 1015 1015 
1015 1015 1015 1015 1015 1015 1015 1015 1015 
1015 1015 1015 1015 1015 1015 1015 1015 1015 
1015 1015 1015 1015 1015 1015 1015 1015 1015 
1015 1015 1015 1015 1015 1015 1015 1015 1015 
1015 1015 1015 1015 1015 1015 1015 1015 1015 
1015 1015 1015 1015 1015 1015 1015 1015 1015 
1015 1015 1015 1015 1015 1015 1015 1015 1015 
1015 1015 1015 1015 1015 1015 1015 1015 1015 
1015 1015 1015 1015 1015 1015 1015 1015 1015 
1015 1015 1015 1015 1015 1015 1015 1015 1015 
1015 1015 1015 1015 1015 1015 1015 1015 1015 
1015 1015 1015 1015 1015 1015 1015 1015 1015 
1015 1015 1015 1015 1015 1015 1015 1015 1015 
1015 1015 1015 1015 1015 1015 1015 1015 1015 
1015 1015 1015 1015 1015 1015 1015 1015 1015 
1015 1015 1015 1015 1015 1015 1015 1015 1015 
1015 1015 1015 1015 1015 1015 1015 1015 1015 
1015 1015 1015 1015 1015 1015 1015 1015 1015 
1015 1015 1015 1015 1015 1015 1015 1015 1015 
1015 1015 1015 1015 1015 1015 1015 1015 1015 
1015 1015 1015 1015 1015 1015 1015 1015 1015 
1015 1015 1015 1015 1015 1015 1015 1015 1015 
1015 1015 1015 1015 1015 1015 1015 1015 1015 
1015 1015 1015 1015 1015 1015 1015 1015 1015 
1015 1015 1015 1015 1015 1015 1015 1015 1015 
1015 1015 1015 1015 1015 1015 1015 1015 1015 
1015 1015 1015 1015 1015 1015 1015 1015 1015 
1015 1015 1015 1015 1015 1015 1015 1015 1015 
1015 1015 1015 1015 1015 1015 1015 1015 1015 
1015 1015 1015 1015 1015 1015 1015 1015 1015 
1015 1015 1015 1015 1015 1015 1015 1015 1015 
1015 1015 1015 1015 1015 1015 1015 1015 1015 
1015 1015 1015 1015 1015 1015 1015 1015 1015 
1015 1015 1015 1015 1015 1015 1015 1015 1015 
1015 1015 1015 1015 1015 1015 1015 1015 1015 
1015 1015 1015 1015 1015 1015 1015 1015 1015 
1015 1015 1015 1015 1015 1015 1015 1015 1015 
1015 1015 1015 1015 1015 1015 1015 1015 1015 
1015 1015 1015 1015 1015 1015 1015 1015 1015 
1015 1015 1015 1015 1015 1015 1015 1015 1015 
1015 1015 1015 1015 1015 1015 1015 1015 1015 
1015 1015 1015 1015 1015 1015 1015 1015 1015 
1015 1015 1015 1015 1015 1015 1015 1015 1015 
1015 1015 1015 1015 1015 1015 1015 1015 1015 
1015 1015 1015 1015 1015 1015 1015 1015 1015 
1015 1015 1015 1015 1015 1015 1015 1015 1015 
1015 1015 1015 1015 1015 1015 1015 1015 1015 
1015 1015 1015 1015 1015 1015 1015 1015 1015 
1015 1015 1015 1015 1015 1015 1015 1015 1015 
1015 1015 1015 1015 1015 1015 1015 1015 1015 
1015 1015 1015 1015 1015 1015 1015 1015 1015 
1015 1015 1015 1015 1015 1015 1015 1015 1015 
1015 1015 1015 1015 1015 1015 1015 1015 1015 
1015 1015 1015 1015 1015 1015 1015 1015 1015 
1015 1015 1015 1015 1015 1015 1015 1015 1015 
1015 1015 1015 1015 1015 1015 1015 1015 1015 
1015 1015 1015 1015 1015 1015 1015 1015 1015 
1015 1015 1015 1015 1015 1015 1015 1015 1015 
1015 1015 1015 1015 1015 1015 1015 1015 1015 
1015 1015 1015 1015 1015 1015 1015 1015 1015 
1015 1015 1015 1015 1015 1015 1015 1015 1015 
1015 1015 1015 1015 1015 1015 1015 1015 1015 
1015 1015 1015 1015 1015 1015 1015 1015 1015 
1015 1015 1015 1015 1015 1015 1015 1015 1015 
1015 1015 1015 1015 1015 1015 1015 1015 1015 
1015 1015 1015 1015 1015 1015 1015 1015 1015 
1015 1015 1015 1015 1015 1015 1015 1015 1015 
1015 1015 1015 1015 1015 1015 1015 1015 1015 
1015 1015 1015 1015 1015 1015 1015 1015 1015 
1015 1015 1015 1015 1015 1015 1015 1015 1015 
1015 1015 1015 1015 1015 1015 1015 1015 1015 
1015 1015 1015 1015 1015 1015 1015 1015 1015 
1015 1015 1015 1015 1015 1015 1015 1015 1015 
1015 1015 1015 1015 1015 1015 1015 1015 1015 
1015 1015 1015 1015 1015 1015 1015 1015 1015 
1015 1015 1015 1015 1015 1015 1015 1015 1015 
1015 1015 1015 1015 1015 1015 1015 1015 1015 
1015 1015 1015 1015 1015 1015 1015 1015 1015 
1015 1015 1015 1015 1015 1015 1015 1015 1015 
1015 1015 1015 1015 1015 1015 1015 1015 1015 
1015 1015 1015 1015 1015 1015 1015 1015 1015 
1015 1015 1015 1015 1015 1015 1015 1015 1015 
1015 1015 1015 1015 1015 1015 1015 1015 1015 
1015 1015 1015 1015 1015 1015 1015 1015 1015 
1015 1015 1015 1015 1015 1015 1015 1015 1015 
1015 1015 1015 1015 1015 1015 1015 1015 1015 
1015 1015 1015 1015 1015 1015 1015 1015 1015 
1015 1015 1015 1015 1015 1015 1015 1015 1015 
1015 1015 1015 1015 1015 1015 1015 1015 1015 
1015 1015 1015 1015 1015 1015 1015 1015 1015 
1015 1015 1015 1015 1015 1015 1015 1015 1015 
1015 1015 1015 1015 1015 1015 1015 1015 1015 
1015 1015 1015 1015 1015 1015 1015 1015 1015 
1015 1015 1015 1015 1015 1015 1015 1015 1015 
1015 1015 1015 1015 1015 1015 1015 1015 1015 
1015 1015 1015 1015 1015 1015 1015 1015 1015 
1015 1015 1015 1015 1015 1015 1015 1015 1015 
1015 1015 1015 1015 1015 1015 1015 1015 1015 
1015 1015 1015 1015 1015 1015 1015 1015 1015 
1015 1015 1015 1015 1015 1015 1015 1015 1015 
1015 1015 1015 1015 1015 1015 1015 1015 1015 
1015 1015 1015 1015 1015 1015 1015 1015 1015 
1015 1015 1015 1015 1015 1015 1015 1015 1015 
1015 1015 1015 1015 1015 1015 1015 1015 1015 
1015 1015 1015 1015 1015 1015 1015 1015 1015 
1015 1015 1015 1015 1015 1015 1015 1015 1015 
1015 1015 1015 1015 1015 1015 1015 1015 1015 
1015 1015 1015 1015 1015 1015 1015 1015 1015 
1015 1015 1015 1015 1015 1015 1015 1015 1015 
1015 1015 1015 1015 1015 1015 1015 1015 1015 
1015 1015 1015 1015 1015 1015 1015 1015 1015 
1015 1015 1015 1015 1015 1015 1015 1015 1015 
1015 1015 1015 1015 1015 1015 1015 1015 1015 
1015 1015 1015 1015 1015 1015 1015 1015 1015 
1015 1015 1015 1015 1015 1015 1015 1015 1015 
1015 1015 1015 1015 1015 1015 1015 1015 1015 
1015 1015 1015 1015 1015 1015 1015 1015 1015 
1015 1015 1015 1015 1015 1015 1015 1015 1015 
1015 1015 1015 1015 1015 1015 1015 1015 1015 
1015 1015 1015 1015 1015 1015 1015 1015 1015 
1015 1015 1015 1015 1015 1015 1015 1015 1015 
1015 1015 1015 1015 1015 1015 1015 1015 1015 
1015 1015 1015 1015 1015 1015 1015 1015 1015 
1015 1015 1015 1015 1015 1015 1015 1015 1015 
1015 1015 1015 1015 1015 1015 1015 1015 1015 
1015 1015 1015 1015 1015 1015 1015 1015 1015 
1015 1015 1015 1015 1015 1015 1015 1015 1015 
1015 1015 1015 1015 1015 1015 1015 1015 1015 
1015 1015 1015 1015 1015 1015 1015 1015 1015 
1015 1015 1015 1015 1015 1015 1015 1015 1015 
1015 1015 1015 1015 1015 1015 1015 1015 1015 
1015 1015 1015 1015 1015 1015 1015 1015 1015 
1015 1015 1015 1015 1015 1015 1015 1015 1015 
1015 1015 1015 1015 1015 1015 1015 1015 1015 
1015 1015 1015 1015 1015 1015 1015 1015 1015 
1015 1015 1015 1015 1015 1015 1015 1015 1015 
1015 1015 1015 1015 1015 1015 1015 1015 1015 
1015 1015 1015 1015 1015 1015 1015 1015 1015 
1015 1015 1015 1015 1015 1015 1015 1015 1015 
1015 1015 1015 1015 1015 1015 1015 1015 1015 
1015 1015 1015 1015 1015 1015 1015 1015 1015 
1015 1015 1015 1015 1015 1015 1015 1015 1015 
1015 1015 1015 1015 1015 1015 1015 1015 1015 
1015 1015 1015 1015 1015 1015 1015 1015 1015 
1015 1015 1015 1015 1015 1015 1015 1015 1015 
1015 1015 1015 1015 1015 1015 1015 1015 1015 
1015 1015 1015 1015 1015 1015 1015 1015 1015 
1015 1015 1015 1015 1015 1015 1015 1015 1015 
1015 1015 1015 1015 1015 1015 1015 1015 1015 
1015 1015 1015 1015 1015 1015 1015 1015 1015 
1015 1015 1015 1015 1015 1015 1015 1015 1015 
1015 1015 1015 1015 1015 1015 1015 1015 1015 
1015 1015 1015 1015 1015 1015 1015 1015 1015 
1015 1015 1015 1015 1015 1015 1015 1015 1015 
1015 1015 1015 1015 1015 1015 1015 1015 1015 
1015 1015 1015 1015 1015 1015 1015 1015 1015 
1015 1015 1015 1015 1015 1015 1015 1015 1015 
1015 1015 1015 1015 1015 1015 1015 1015 1015 
1015 1015 1015 1015 1015 1015 1015 1015 1015 
1015 1015 1015 1015 1015 1015 1015 1015 1015 
1015 1015 1015 1015 1015 1015 1015 1015 1015 
1015 1015 1015 1015 1015 1015 1015 1015 1015 
1015 1015 1015 1015 1015 1015 1015 1015 1015 
1015 1015 1015 1015 1015 1015 1015 1015 1015 
1015 1015 1015 1015 1015 1015 1015 1015 1015 
1015 1015 1015 1015 1015 1015 1015 1015 1015 
1015 1015 1015 1015 1015 1015 1015 1015 1015 
1015 1015 1015 1015 1015 1015 1015 1015 1015 
1015 1015 1015 1015 1015 1015 1015 1015 1015 
1015 1015 1015 1015 1015 1015 1015 1015 1015 
1015 1015 1015 1015 1015 1015 1015 1015 1015 
1015 1015 1015 1015 1015 1015 1015 1015 1015 
1015 1015 1015 1015 1015 1015 1015 1015 1015 
1015 1015 1015 1015 1015 1015 1015 1015 1015 
1015 1015 1015 1015 1015 1015 1015 1015 1015 
1015 1015 1015 1015 1015 1015 1015 1015 1015 
1015 1015 1015 1015 1015 1015 1015 1015 1015 
1015 1015 1015 1015 1015 1015 1015 1015 1015 
1015 1015 1015 1015 1015 1015 1015 1015 1015 
1015 1015 1015 1015 1015 1015 1015 1015 1015 
1015 1015 1015 1015 1015 1015 1015 1015 1015 
1015 1015 1015 1015 1015 1015 1015 1015 1015 
1015 1015 1015 1015 1015 1015 1015 1015 1015 
1015 1015 1015 1015 1015 1015 1015 1015 1015 
1015 1015 1015 1015 1015 1015 1015 1015 1015 
1015 1015 1015 1015 1015 1015 1015 1015 1015 
1015 1015 1015 1015 1015 1015 1015 1015 1015 
1015 1015 1015 1015 1015 1015 1015 1015 1015 
1015 1015 1015 1015 1015 1015 1015 1015 1015 
1015 1015 1015 1015 1015 1015 1015 1015 1015 
1015 1015 1015 1015 1015 1015 1015 1015 1015 
1015 1015 1015 1015 1015 1015 1015 1015 1015 
1015 1015 1015 1015 1015 1015 1015 1015 1015 
1015 1015 1015 1015 1015 1015 1015 1015 1015 
1015 1015 1015 1015 1015 1015 1015 1015 1015 
1015 1015 1015 1015 1015 1015 1015 1015 1015 
1015 1015 1015 1015 1015 1015 1015 1015 1015 
1015 1015 1015 1015 1015 1015 1015 1015 1015 
1015 1015 1015 1015 1015 1015 1015 1015 1015 
1015 1015 1015 1015 1015 1015 1015 1015 1015 
1015 1015 1015 1015 1015 1015 1015 1015 1015 
1015 1015 1015 1015 1015 1015 1015 1015 1015 
1015 1015 1015 1015 1015 1015 1015 1015 1015 
1015 1015 1015 1015 1015 1015 1015 1015 1015 
1015 1015 1015 1015 1015 1015 1015 1015 1015 
1015 1015 1015 1015 1015 1015 1015 1015 1015 
1015 1015 1015 1015 1015 1015 1015 1015 1015 
1015 1015 1015 1015 1015 1015 1015 1015 1015 
1015 1015 1015 1015 1015 1015 1015 1015 1015 
1015 1015 1015 1015 1015 1015 1015 1015 1015 
1015 1015 1015 1015 1015 1015 1015 1015 1015 
1015 1015 1015 1015 1015 1015 1015 1015 1015 
1015 1015 1015 1015 1015 1015 1015 1015 1015 
1015 1015 1015 1015 1015 1015 1015 1015 1015 
1015 1015 1015 1015 1015 1015 1015 1015 1015 
1015 1015 1015 1015 1015 1015 1015 1015 1015 
1015 1015 1015 1015 1015 1015 1015 1015 1015 
1015 1015 1015 1015 1015 1015 1015 1015 1015 
1015 1015 1015 1015 1015 1015 1015 1015 1015 
1015 1015 1015 1015 1015 1015 1015 1015 1015 
1015 1015 1015 1015 1015 1015 1015 1015 1015 
1015 1015 1015 1015 1015 1015 1015 1015 1015 
1015 1015 1015 1015 1015 1015 1015 1015 1015 
1015 1015 1015 1015 1015 1015 1015 1015 1015 
1015 1015 1015 1015 1015 1015 1015 1015 1015 
1015 1015 1015 1015 1015 1015 1015 1015 1015 
1015 1015 1015 1015 1015 1015 1015 1015 1015 
1015 1015 1015 1015 1015 1015 1015 1015 1015 
1015 1015 1015 1015 1015 1015 1015 1015 1015 
1015 1015 1015 1015 1015 1015 1015 1015 1015 
1015 1015 1015 1015 1015 1015 1015 1015 1015 
1015 1015 1015 1015 1015 1015 1015 1015 1015 
1015 1015 1015 1015 1015 1015 1015 1015 1015 
1015 1015 1015 1015 1015 1015 1015 1015 1015 
1015 1015 1015 1015 1015 1015 1015 1015 1015 
1015 1015 1015 1015 1015 1015 1015 1015 1015 
1015 1015 1015 1015 1015 1015 1015 1015 1015 
1015 1015 1015 1015 1015 1015 1015 1015 1015 
1015 1015 1015 1015 1015 1015 1015 1015 1015 
1015 1015 1015 1015 1015 1015 1015 1015 1015 
1015 1015 1015 1015 1015 1015 1015 1015 1015 
1015 1015 1015 1015 1015 1015 1015 1015 1015 
1015 1015 1015 1015 1015 1015 1015 1015 1015 
1015 1015 1015 1015 1015 1015 1015 1015 1015 
1015 1015 1015 1015 1015 1015 1015 1015 1015 
1015 1015 1015 1015 1015 1015 1015 1015 1015 
1015 1015 1015 1015 1015 1015 1015 1015 1015 
1015 1015 1015 1015 1015 1015 1015 1015 1015 
1015 1015 1015 1015 1015 1015 1015 1015 1015 
1015 1015 1015 1015 1015 1015 1015 1015 1015 
1015 1015 1015 1015 1015 1015 1015 1015 1015 
1015 1015 1015 1015 1015 1015 1015 1015 1015 
1015 1015 1015 1015 1015 1015 1015 1015 1015 
1015 1015 1015 1015 1015 1015 1015 1015 1015 
1015 1015 1015 1015 1015 1015 1015 1015 1015 
1015 1015 1015 1015 1015 1015 1015 1015 1015 
1015 1015 1015 1015 1015 1015 1015 1015 1015 
1015 1015 1015 1015 1015 1015 1015 1015 1015 
1015 1015 1015 1015 1015 1015 1015 1015 1015 
1015 1015 1015 1015 1015 1015 1015 1015 1015 
1015 1015 1015 1015 1015 1015 1015 1015 1015 
1015 1015 1015 1015 1015 1015 1015 1015 1015 
1015 1015 1015 1015 1015 1015 1015 1015 1015 
1015 1015 1015 1015 1015 1015 1015 1015 1015 
1015 1015 1015 1015 1015 1015 1015 1015 1015 
1015 1015 1015 1015 1015 1015 1015 1015 1015 
1015 1015 1015 1015 1015 1015 1015 1015 1015 
1015 1015 1015 1015 1015 1015 1015 1015 1015 
1015 1015 1015 1015 1015 1015 1015 1015 1015 
1015 1015 1015 1015 1015 1015 1015 1015 1015 
1015 1015 1015 1015 1015 1015 1015 1015 1015 
1015 1015 1015 1015 1015 1015 1015 1015 1015 
1015 1015 1015 1015 1015 1015 1015 1015 1015 
1015 1015 1015 1015 1015 1015 1015 1015 1015 
1015 1015 1015 1015 1015 1015 1015 1015 1015 
1015 1015 1015 1015 1015 1015 1015 1015 1015 
1015 1015 1015 1015 1015 1015 1015 1015 1015 
1015 1015 1015 1015 1015 1015 1015 1015 1015 
1015 1015 1015 1015 1015 1015 1015 1015 1015 
1015 1015 1015 1015 1015 1015 1015 1015 1015 
1015 1015 1015 1015 1015 1015 1015 1015 1015 
1015 1015 1015 1015 1015 1015 1015 1015 1015 
1015 1015 1015 1015 1015 1015 1015 1015 1015 
1015 1015 1015 1015 1015 1015 1015 1015 1015 
1015 1015 1015 1015 1015 1015 1015 1015 1015 
1015 1015 1015 1015 1015 1015 1015 1015 1015 
1015 1015 1015 1015 1015 1015 1015 1015 1015 
1015 1015 1015 1015 1015 1015 1015 1015 1015 
1015 1015 1015 1015 1015 1015 1015 1015 1015 
1015 1015 1015 1015 1015 1015 1015 1015 1015 
1015 1015 1015 1015 1015 1015 1015 1015 1015 
1015 1015 1015 1015 1015 1015 1015 1015 1015 
1015 1015 1015 1015 1015 1015 1015 1015 1015 
1015 1015 1015 1015 1015 1015 1015 1015 1015 
1015 1015 1015 1015 1015 1015 1015 1015 1015 
1015 1015 1015 1015 1015 1015 1015 1015 1015 
1015 1015 1015 1015 1015 1015 1015 1015 1015 
1015 1015 1015 1015 1015 1015 1015 1015 1015 
1015 1015 1015 1015 1015 1015 1015 1015 1015 
1015 1015 1015 1015 1015 1015 1015 1015 1015 
1015 1015 1015 1015 1015 1015 1015 1015 1015 
1015 1015 1015 1015 1015 1015 1015 1015 1015 
1015 1015 1015 1015 1015 1015 1015 1015 1015 
1015 1015 1015 1015 1015 1015 1015 1015 1015 
1015 1015 1015 1015 1015 1015 1015 1015 1015 
1015 1015 1015 1015 1015 1015 1015 1015 1015 
1015 1015 1015 1015 1015 1015 1015 1015 1015 
1015 1015 1015 1015 1015 1015 1015 1015 1015 
1015 1015 1015 1015 1015 1015 1015 1015 1015 
1015 1015 1015 1015 1015 1015 1015 1015 1015 
1015 1015 1015 1015 1015 1015 1015 1015 1015 
1015 1015 1015 1015 1015 1015 1015 1015 1015 
1015 1015 1015 1015 1015 1015 1015 1015 1015 
1015 1015 1015 1015 1015 1015 1015 1015 1015 
1015 1015 1015 1015 1015 1015 1015 1015 1015 
1015 1015 1015 1015 1015 1015 1015 1015 1015 
1015 1015 1015 1015 1015 1015 1015 1015 1015 
1015 1015 1015 1015 1015 1015 1015 1015 1015 
1015 1015 1015 1015 1015 1015 1015 1015 1015 
1015 1015 1015 1015 1015 1015 1015 1015 1015 
1015 1015 1015 1015 1015 1015 1015 1015 1015 
1015 1015 1015 1015 1015 1015 1015 1015 1015 
1015 1015 1015 1015 1015 1015 1015 1015 1015 
1015 1015 1015 1015 1015 1015 1015 1015 1015 
1015 1015 1015 1015 1015 1015 1015 1015 1015 
1015 1015 1015 1015 1015 1015 1015 1015 1015 
1015 1015 1015 1015 1015 1015 1015 1015 1015 
1015 1015 1015 1015 1015 1015 1015 1015 1015 
1015 1015 1015 1015 1015 1015 1015 1015 1015 
1015 1015 1015 1015 1015 1015 1015 1015 1015 
1015 1015 1015 1015 1015 1015 1015 1015 1015 
1015 1015 1015 1015 1015 1015 1015 1015 1015 
1015 1015 1015 1015 1015 1015 1015 1015 1015 
1015 1015 1015 1015 1015 1015 1015 1015 1015 
1015 1015 1015 1015 1015 1015 1015 1015 1015 
1015 1015 1015 1015 1015 1015 1015 1015 1015 
1015 1015 1015 1015 1015 1015 1015 1015 1015 
1015 1015 1015 1015 1015 1015 1015 1015 1015 
1015 1015 1015 1015 1015 1015 1015 1015 1015 
1015 1015 1015 1015 1015 1015 1015 1015 1015 
1015 1015 1015 1015 1015 1015 1015 1015 1015 
1015 1015 1015 1015 1015 1015 1015 1015 1015 
1015 1015 1015 1015 1015 1015 1015 1015 1015 
1015 1015 1015 1015 1015 1015 1015 1015 1015 
1015 1015 1015 1015 1015 1015 1015 1015 1015 
1015 1015 1015 1015 1015 1015 1015 1015 1015 
1015 1015 1015 1015 1015 1015 1015 1015 1015 
1015 1015 1015 1015 1015 1015 1015 1015 1015 
1015 1015 1015 1015 1015 1015 1015 1015 1015 
1015 1015 1015 1015 1015 1015 1015 1015 1015 
1015 1015 1015 1015 1015 1015 1015 1015 1015 
1015 1015 1015 1015 1015 1015 1015 1015 1015 
1015 1015 1015 1015 1015 1015 1015 1015 1015 
1015 1015 1015 1015 1015 1015 1015 1015 1015 
1015 1015 1015 1015 1015 1015 1015 1015 1015 
1015 1015 1015 1015 1015 1015 1015 1015 1015 
1015 1015 1015 1015 1015 1015 1015 1015 1015 
1015 1015 1015 1015 1015 1015 1015 1015 1015 
1015 1015 1015 1015 1015 1015 1015 1015 1015 
1015 1015 1015 1015 1015 1015 1015 1015 1015 
1015 1015 1015 1015 1015 1015 1015 1015 1015 
1015 1015 1015 1015 1015 1015 1015 1015 1015 
1015 1015 1015 1015 1015 1015 1015 1015 1015 
1015 1015 1015 1015 1015 1015 1015 1015 1015 
1015 1015 1015 1015 1015 1015 1015 1015 1015 
1015 1015 1015 1015 1015 1015 1015 1015 1015 
1015 1015 1015 1015 1015 1015 1015 1015 1015 
1015 1015 1015 1015 1015 1015 1015 1015 1015 
1015 1015 1015 1015 1015 1015 1015 1015 1015 
1015 1015 1015 1015 1015 1015 1015 1015 1015 
1015 1015 1015 1015 1015 1015 1015 1015 1015 
1015 1015 1015 1015 1015 1015 1015 1015 1015 
1015 1015 1015 1015 1015 1015 1015 1015 1015 
1015 1015 1015 1015 1015 1015 1015 1015 1015 
1015 1015 1015 1015 1015 1015 1015 1015 1015 
1015 1015 1015 1015 1015 1015 1015 1015 1015 
1015 1015 1015 1015 1015 1015 1015 1015 1015 
1015 1015 1015 1015 1015 1015 1015 1015 1015 
1015 1015 1015 1015 1015 1015 1015 1015 1015 
1015 1015 1015 1015 1015 1015 1015 1015 1015 
1015 1015 1015 1015 1015 1015 1015 1015 1015 
1015 1015 1015 1015 1015 1015 1015 1015 1015 