# vtk DataFile Version 4.0
vtk output
ASCII
DATASET POLYDATA
POINTS 8146 float
-29.0833 22.8434 5.62862 -29.023 22.3032 6.37641 -28.3335 22.6506 5.82068 
-29.6024 22.3945 6.06038 -28.2413 22.8454 5.0823 -27.7972 22.4041 5.56743 
-27.6152 22.1799 4.86095 -29.1081 23.0857 4.81397 -30.074 22.3737 5.60597 
-29.8655 22.8834 4.93299 -30.5272 22.4127 5.01401 -28.0858 22.5912 4.39635 
-28.5094 22.4563 3.82503 -28.9257 22.8911 4.09449 -30.0536 22.9621 3.92496 
-30.6065 22.5508 4.34439 -29.1371 22.591 3.36135 -29.451 22.5313 2.58853 
-29.9617 22.9232 2.96368 -31.1168 22.3749 3.59679 -30.9285 22.8476 2.88424 
-31.614 22.3771 2.94995 -30.0441 22.7816 2.12087 -29.6368 22.5083 1.98707 
-30.7315 22.8426 2.07103 -31.538 22.5403 2.2424 -30.1003 22.3943 1.51655 
-31.156 22.4955 1.58363 -35.091 22.648 -5.04231 -35.2338 22.3198 -4.76899 
-34.6941 22.3651 -4.96753 -35.6235 22.1709 -5.15441 -35.1227 22.4025 -5.47413 
-28.9496 21.7845 7.72246 -28.9521 21.3297 8.23693 -28.5117 21.5383 7.89224 
-29.3228 21.2598 8.06595 -28.2373 21.8469 7.20829 -27.9625 21.1757 7.47271 
-27.6842 21.5332 6.761 -28.7691 22.0504 6.96297 -29.5372 21.4839 7.26557 
-28.0806 22.1349 6.32167 -27.481 21.5784 5.90214 -30.0311 22.0445 6.01172 
-29.8551 21.8013 6.4304 -30.4372 21.2926 5.92964 -27.3945 21.3043 5.14386 
-31.0237 21.9692 4.63174 -30.8205 21.7916 5.25402 -31.2339 21.2329 4.65366 
-27.9855 22.1466 3.8938 -27.6378 21.4773 4.10405 -31.0627 22.1211 4.10544 
-31.4476 21.4226 3.84692 -28.037 21.8914 2.993 -27.6428 21.427 2.83282 
-28.6847 22.2109 3.12585 -32.0839 21.9344 2.61004 -31.8499 21.7403 3.25288 
-32.2316 21.3274 2.82961 -27.9275 21.7487 2.17985 -27.5908 21.2288 1.75161 
-28.8729 22.0703 2.07723 -31.9121 22.0346 1.66306 -32.4408 21.4193 2.16882 
-28.2146 21.5021 1.51268 -29.1531 21.6998 1.28724 -30.076 21.8642 0.884553 
-29.3812 21.295 0.886825 -31.0365 22.1583 1.02808 -31.7541 21.8149 0.745045 
-32.4739 21.4937 1.26935 -30.0253 21.2932 0.507994 -30.5491 21.2986 -0.156694 
-30.96 21.7907 0.115919 -31.6633 21.5719 0.035367 -32.1926 21.4321 0.509655 
-31.0756 21.8255 -1.19481 -30.4952 21.3381 -0.996615 -31.5955 21.5335 -0.70459 
-29.288 21.8025 -2.10551 -29.1077 21.2532 -1.56637 -28.6837 21.2288 -1.98657 
-30.3024 21.9601 -2.00535 -29.8839 21.398 -1.53262 -31.0231 22.0704 -2.10469 
-31.8176 21.5585 -1.48376 -31.6456 21.7913 -2.22465 -32.1966 21.1775 -1.93837 
-29.0456 21.6054 -2.54458 -29.4203 21.4426 -3.19226 -29.8931 21.9897 -3.05336 
-30.9917 21.9597 -2.99682 -31.6853 21.5976 -3.00988 -31.991 21.4678 -2.58336 
-32.9728 21.1956 -2.75032 -32.5631 21.4576 -3.33648 -33.2317 21.7495 -3.20273 
-33.5699 21.373 -2.87021 -30.0979 21.8688 -4.0412 -29.7725 21.2683 -3.78573 
-30.8197 21.9137 -4.12759 -31.5321 21.5207 -3.83362 -33.1365 21.8012 -3.90891 
-32.6581 21.3808 -4.06079 -33.8527 21.6144 -3.35614 -33.9956 21.9374 -4.07076 
-34.4542 21.1363 -3.98923 -30.2135 21.4909 -4.43033 -30.5825 21.3318 -5.07138 
-30.7618 21.7756 -4.85289 -31.4364 21.4855 -4.80727 -33.1523 21.5595 -4.54776 
-33.2768 21.5584 -5.16893 -33.8061 21.9918 -5.07902 -35.045 21.6974 -4.59732 
-36.1549 21.7305 -5.01433 -35.8376 21.742 -4.82338 -36.2373 21.4467 -5.0377 
-31.1739 21.3955 -5.36813 -33.2697 21.7785 -5.89872 -32.8741 21.3661 -5.61868 
-32.6203 21.4555 -6.38476 -33.8057 21.8876 -6.29216 -34.6597 21.9806 -5.93371 
-35.4405 21.6513 -5.79416 -36.064 21.5882 -5.30371 -33.0698 21.7215 -6.76137 
-32.5886 21.4706 -6.97783 -33.579 21.5816 -6.96628 -34.2506 21.4501 -6.61225 
-34.8565 21.3028 -6.2975 -31.993 21.6168 -8.04906 -31.9057 21.3335 -7.63582 
-31.7322 21.1624 -8.18177 -32.9746 21.3895 -7.30987 -32.2283 21.479 -7.88876 
-32.1455 21.4725 -8.32388 -29.0405 20.5376 8.30586 -28.497 20.7908 8.08054 
-29.5451 20.3616 7.9337 -27.9367 20.1977 7.5641 -27.5274 20.7402 6.8273 
-29.9908 20.5803 7.34743 -30.127 21.0903 6.81754 -30.3142 20.3941 6.82262 
-27.3895 20.4665 5.98192 -30.4854 20.2628 6.1378 -27.6152 20.4076 5.101 
-30.94 21.0683 5.12143 -30.7191 20.334 5.29784 -27.9044 20.7056 4.39853 
-27.9379 20.9998 3.6403 -28.2913 20.269 4.16323 -31.2086 20.3412 4.66575 
-31.5321 20.3968 3.93483 -27.8529 20.9177 2.87641 -28.4903 20.2369 3.1157 
-31.9197 21.05 3.14078 -31.6755 20.3953 3.11952 -32.9738 20.6433 2.74102 
-33.0228 20.47 3.13645 -32.6777 20.2696 2.82383 -33.1964 20.4393 2.82055 
-27.984 20.3796 2.40619 -27.5647 20.6452 2.01874 -32.3223 20.6726 2.64469 
-32.9591 20.9512 1.85359 -33.2875 20.5586 2.18954 -27.8745 20.9392 1.09658 
-27.5555 20.3504 0.913898 -28.6071 21.0292 0.969882 -33.0401 21.0052 0.677356 
-33.5641 20.4081 1.30829 -28.2303 20.4157 0.515406 -29.2692 20.5682 0.490568 
-30.0633 20.6323 0.263935 -30.3801 20.5287 -0.340594 -32.163 21.2096 -0.128872 
-32.817 20.8692 -0.248504 -34.1208 20.3475 0.579737 -33.7132 20.7206 0.0422006 
-34.5633 20.2033 -0.102019 -29.1491 20.7367 -1.16599 -28.818 20.3435 -0.84867 
-28.4747 20.4718 -1.42202 -29.4619 20.3393 -0.881721 -30.312 20.6932 -1.0155 
-32.1797 21.1185 -0.967988 -32.6266 20.6428 -1.10264 -33.2932 20.464 -0.597918 
-33.9973 20.3305 -0.499332 -28.5459 20.3746 -2.05833 -29.7842 20.7258 -1.23936 
-32.6151 20.4683 -1.94376 -28.8898 20.8247 -2.54371 -29.4567 20.3857 -3.15424 
-32.2194 21.127 -2.91111 -33.0301 20.4149 -2.42944 -34.0605 21.0891 -3.12136 
-33.6948 20.6625 -2.69318 -34.2649 20.383 -3.15947 -29.9146 20.6001 -3.68497 
-30.0117 21.0594 -4.02923 -30.2389 20.5337 -4.30781 -32.1028 21.1933 -4.17584 
-34.6252 20.2179 -3.85722 -30.0604 20.3647 -4.75187 -29.5876 20.354 -5.25263 
-30.0517 20.9191 -5.18995 -31.8295 21.0899 -5.26556 -32.6705 21.1665 -4.92031 
-35.0311 21.0159 -4.96933 -34.7276 20.5699 -4.96342 -35.7342 21.2644 -5.22572 
-29.2792 20.8747 -5.93543 -29.0165 20.3337 -5.71632 -28.681 20.5133 -6.33931 
-29.947 21.0387 -5.99861 -30.9429 20.9746 -6.03769 -32.203 21.0781 -5.86791 
-35.0885 20.9457 -5.76852 -34.6959 20.7118 -6.22032 -36.0356 20.5314 -5.89551 
-35.7805 20.3821 -6.05758 -35.8506 20.7341 -6.34572 -36.1846 20.3935 -6.14973 
-28.916 20.9018 -6.88739 -28.5498 20.5954 -7.22445 -29.74 20.8635 -6.96765 
-30.5558 20.4936 -6.87609 -31.1632 20.52 -6.76524 -31.4355 20.6134 -7.37563 
-32.0792 21.1127 -7.01809 -33.98 21.1392 -7.30125 -35.0456 20.9161 -6.83948 
-35.2967 20.4423 -6.30178 -35.7528 20.8528 -7.19826 -36.4346 20.2988 -7.00836 
-28.9483 20.7584 -7.74685 -28.4082 20.2914 -7.90531 -29.5447 20.5472 -7.92175 
-30.131 20.3834 -7.48788 -31.3413 20.4558 -8.18061 -32.7995 21.1967 -8.08044 
-33.7696 20.8853 -8.28809 -34.8323 20.8814 -7.80219 -35.6462 20.3832 -8.09811 
-36.1415 20.4035 -7.6339 -29.0986 20.1675 -8.34403 -32.1598 21.0482 -8.81794 
-31.6355 20.5772 -9.00801 -32.9131 20.796 -8.97541 -33.6323 20.3199 -9.10626 
-34.3118 20.5114 -8.59089 -35.0129 20.3718 -8.51895 -32.3035 20.5112 -9.5432 
-32.9822 20.3116 -9.58952 -28.9937 19.464 8.26744 -28.4853 19.7345 8.07889 
-29.4775 19.2044 8.0248 -27.9466 19.1449 7.53632 -27.5464 19.6823 6.86938 
-30.0085 19.7372 7.49784 -30.4745 19.478 6.96958 -27.558 19.3105 6.00367 
-30.6805 19.6048 6.00201 -27.8952 19.5224 5.29276 -28.0547 20.0729 4.80323 
-28.2864 19.4101 4.82756 -30.8598 19.6231 5.31532 -30.9471 19.9295 4.91893 
-31.3163 19.5302 4.96162 -28.6756 19.4434 4.08371 -32.1192 19.808 3.83768 
-31.9984 19.6112 4.42178 -32.7871 19.6653 3.84875 -32.7693 19.5384 4.16614 
-33.2226 19.2889 4.02533 -29.1509 19.4131 3.46956 -29.043 19.8485 2.99235 
-29.4587 19.4174 3.00298 -31.6993 19.6971 3.18669 -32.3075 19.265 3.36938 
-33.0498 19.2164 3.69972 -33.0195 20.2977 2.9468 -34.2409 19.7365 3.06063 
-34.1371 19.4526 3.30759 -33.83 19.2812 3.0957 -34.7957 19.7584 2.91535 
-34.7153 19.5238 3.21568 -35.1504 19.5949 3.00124 -27.8337 19.9293 1.8417 
-28.4776 19.5044 1.98579 -29.0891 19.6336 2.59451 -32.1378 19.4984 2.56929 
-33.0286 19.9518 2.12173 -32.6529 19.2115 1.97577 -34.0364 19.2964 2.61342 
-34.8975 19.3959 2.81258 -27.9842 19.2922 1.38527 -27.596 19.7312 1.1699 
-33.0987 19.2631 1.54457 -33.693 19.5224 1.19188 -34.0467 20.0049 0.940261 
-34.2502 19.4915 0.771629 -27.9153 19.9782 0.0242016 -27.6251 19.5315 0.0602119 
-28.9536 20.0773 -0.273159 -29.8395 20.12 -0.0202167 -35.0897 19.8508 -0.0029136 
-34.9104 19.4506 0.342867 -35.4931 19.3992 0.0604574 -28.0712 19.8904 -0.735986 
-27.7303 19.3603 -0.838513 -29.9916 20.1649 -0.685006 -32.9867 20.1612 -1.28003 
-33.6453 19.8548 -1.1881 -34.4362 19.7548 -0.816234 -35.1322 19.6252 -0.377101 
-27.9794 19.6279 -1.3374 -28.4204 19.3353 -1.83003 -33.2042 19.8715 -1.89082 
-33.7135 19.4261 -1.88262 -34.1379 19.3358 -1.46726 -28.9216 19.7313 -2.54993 
-29.5142 19.1772 -3.03594 -33.8015 19.7525 -2.47873 -34.4533 19.5496 -3.04852 
-29.9977 19.7297 -3.54043 -30.343 19.3333 -4.01754 -35.0569 19.3359 -3.54893 
-35.1539 19.9208 -4.39179 -35.5794 19.3354 -3.99203 -29.9791 20.0308 -4.9825 
-30.3775 19.4097 -4.87735 -34.9614 20.1855 -5.26431 -36.0781 19.2909 -4.39368 
-35.6437 19.7633 -5.02866 -36.4244 19.3137 -4.92743 -28.8337 19.916 -6.15654 
-29.4644 19.4799 -5.99589 -29.9028 19.6879 -5.39734 -35.2858 19.9277 -5.87526 
-36.0266 20.2506 -5.9641 -35.7537 19.1894 -5.64696 -35.4594 19.4181 -6.03901 
-37.0254 19.6858 -6.30648 -37.1281 19.516 -5.75809 -36.6882 19.4551 -5.89081 
-37.3998 19.2297 -5.87365 -28.9809 19.3316 -6.57247 -28.4399 19.8698 -7.03285 
-30.7568 20.1797 -7.27955 -35.9063 19.656 -6.26645 -36.9167 19.8762 -6.93619 
-37.4203 19.2634 -6.90857 -27.9924 19.7964 -7.86277 -28.0848 19.1539 -7.5543 
-27.6658 19.2983 -8.28457 -30.1715 20.0696 -8.09483 -30.9708 20.1035 -7.85468 
-36.079 20.0446 -8.08198 -36.5807 19.5126 -8.11521 -37.0983 19.5181 -7.61935 
-28.2687 19.6811 -8.50542 -29.1305 19.4908 -8.69986 -29.9419 19.6351 -8.68927 
-30.4815 19.2785 -9.35855 -30.944 19.9613 -8.88716 -34.1297 20.1045 -9.02465 
-34.6926 19.9353 -9.03986 -35.5059 19.4655 -9.08156 -36.0433 19.5045 -8.61461 
-31.0322 19.7039 -9.81553 -30.7661 19.3684 -9.96867 -31.7263 19.9992 -9.92156 
-32.6754 19.9227 -10.0971 -33.4531 19.7423 -9.87663 -34.2545 19.6079 -9.56404 
-35.0264 19.3049 -9.56592 -31.1119 19.3598 -10.5162 -32.2409 19.479 -10.5847 
[...]
CELL_DATA 16304
SCALARS scalars float
LOOKUP_TABLE default
1035 1035 1035 1035 1035 1035 1035 1035 1035 
1035 1035 1035 1035 1035 1035 1035 1035 1035 
1035 1035 1035 1035 1035 1035 1035 1035 1035 
1035 1035 1035 1035 1035 1035 1035 1035 1035 
1035 1035 1035 1035 1035 1035 1035 1035 1035 
1035 1035 1035 1035 1035 1035 1035 1035 1035 
1035 1035 1035 1035 1035 1035 1035 1035 1035 
1035 1035 1035 1035 1035 1035 1035 1035 1035 
1035 1035 1035 1035 1035 1035 1035 1035 1035 
1035 1035 1035 1035 1035 1035 1035 1035 1035 
1035 1035 1035 1035 1035 1035 1035 1035 1035 
1035 1035 1035 1035 1035 1035 1035 1035 1035 
1035 1035 1035 1035 1035 1035 1035 1035 1035 
1035 1035 1035 1035 1035 1035 1035 1035 1035 
1035 1035 1035 1035 1035 1035 1035 1035 1035 
1035 1035 1035 1035 1035 1035 1035 1035 1035 
1035 1035 1035 1035 1035 1035 1035 1035 1035 
1035 1035 1035 1035 1035 1035 1035 1035 1035 
1035 1035 1035 1035 1035 1035 1035 1035 1035 
1035 1035 1035 1035 1035 1035 1035 1035 1035 
1035 1035 1035 1035 1035 1035 1035 1035 1035 
1035 1035 1035 1035 1035 1035 1035 1035 1035 
1035 1035 1035 1035 1035 1035 1035 1035 1035 
1035 1035 1035 1035 1035 1035 1035 1035 1035 
1035 1035 1035 1035 1035 1035 1035 1035 1035 
1035 1035 1035 1035 1035 1035 1035 1035 1035 
1035 1035 1035 1035 1035 1035 1035 1035 1035 
1035 1035 1035 1035 1035 1035 1035 1035 1035 
1035 1035 1035 1035 1035 1035 1035 1035 1035 
1035 1035 1035 1035 1035 1035 1035 1035 1035 
1035 1035 1035 1035 1035 1035 1035 1035 1035 
1035 1035 1035 1035 1035 1035 1035 1035 1035 
1035 1035 1035 1035 1035 1035 1035 1035 1035 
1035 1035 1035 1035 1035 1035 1035 1035 1035 
1035 1035 1035 1035 1035 1035 1035 1035 1035 
1035 1035 1035 1035 1035 1035 1035 1035 1035 
1035 1035 1035 1035 1035 1035 1035 1035 1035 
1035 1035 1035 1035 1035 1035 1035 1035 1035 
1035 1035 1035 1035 1035 1035 1035 1035 1035 
1035 1035 1035 1035 1035 1035 1035 1035 1035 
1035 1035 1035 1035 1035 1035 1035 1035 1035 
1035 1035 1035 1035 1035 1035 1035 1035 1035 
1035 1035 1035 1035 1035 1035 1035 1035 1035 
1035 1035 1035 1035 1035 1035 1035 1035 1035 
1035 1035 1035 1035 1035 1035 1035 1035 1035 
1035 1035 1035 1035 1035 1035 1035 1035 1035 
1035 1035 1035 1035 1035 1035 1035 1035 1035 
1035 1035 1035 1035 1035 1035 1035 1035 1035 
1035 1035 1035 1035 1035 1035 1035 1035 1035 
1035 1035 1035 1035 1035 1035 1035 1035 1035 
1035 1035 1035 1035 1035 1035 1035 1035 1035 
1035 1035 1035 1035 1035 1035 1035 1035 1035 
1035 1035 1035 1035 1035 1035 1035 1035 1035 
1035 1035 1035 1035 1035 1035 1035 1035 1035 
1035 1035 1035 1035 1035 1035 1035 1035 1035 
1035 1035 1035 1035 1035 1035 1035 1035 1035 
1035 1035 1035 1035 1035 1035 1035 1035 1035 
1035 1035 1035 1035 1035 1035 1035 1035 1035 
1035 1035 1035 1035 1035 1035 1035 1035 1035 
1035 1035 1035 1035 1035 1035 1035 1035 1035 
1035 1035 1035 1035 1035 1035 1035 1035 1035 
1035 1035 1035 1035 1035 1035 1035 1035 1035 
1035 1035 1035 1035 1035 1035 1035 1035 1035 
1035 1035 1035 1035 1035 1035 1035 1035 1035 
1035 1035 1035 1035 1035 1035 1035 1035 1035 
1035 1035 1035 1035 1035 1035 1035 1035 1035 
1035 1035 1035 1035 1035 1035 1035 1035 1035 
1035 1035 1035 1035 1035 1035 1035 1035 1035 
1035 1035 1035 1035 1035 1035 1035 1035 1035 
1035 1035 1035 1035 1035 1035 1035 1035 1035 
1035 1035 1035 1035 1035 1035 1035 1035 1035 
1035 1035 1035 1035 1035 1035 1035 1035 1035 
1035 1035 1035 1035 1035 1035 1035 1035 1035 
1035 1035 1035 1035 1035 1035 1035 1035 1035 
1035 1035 1035 1035 1035 1035 1035 1035 1035 
1035 1035 1035 1035 1035 1035 1035 1035 1035 
1035 1035 1035 1035 1035 1035 1035 1035 1035 
1035 1035 1035 1035 1035 1035 1035 1035 1035 
1035 1035 1035 1035 1035 1035 1035 1035 1035 
1035 1035 1035 1035 1035 1035 1035 1035 1035 
1035 1035 1035 1035 1035 1035 1035 1035 1035 
1035 1035 1035 1035 1035 1035 1035 1035 1035 
1035 1035 1035 1035 1035 1035 1035 1035 1035 
1035 1035 1035 1035 1035 1035 1035 1035 1035 
1035 1035 1035 1035 1035 1035 1035 1035 1035 
1035 1035 1035 1035 1035 1035 1035 1035 1035 
1035 1035 1035 1035 1035 1035 1035 1035 1035 
1035 1035 1035 1035 1035 1035 1035 1035 1035 
1035 1035 1035 1035 1035 1035 1035 1035 1035 
1035 1035 1035 1035 1035 1035 1035 1035 1035 
1035 1035 1035 1035 1035 1035 1035 1035 1035 
1035 1035 1035 1035 1035 1035 1035 1035 1035 
1035 1035 1035 1035 1035 1035 1035 1035 1035 
1035 1035 1035 1035 1035 1035 1035 1035 1035 
1035 1035 1035 1035 1035 1035 1035 1035 1035 
1035 1035 1035 1035 1035 1035 1035 1035 1035 
1035 1035 1035 1035 1035 1035 1035 1035 1035 
1035 1035 1035 1035 1035 1035 1035 1035 1035 
1035 1035 1035 1035 1035 1035 1035 1035 1035 
1035 1035 1035 1035 1035 1035 1035 1035 1035 
1035 1035 1035 1035 1035 1035 1035 1035 1035 
1035 1035 1035 1035 1035 1035 1035 1035 1035 
1035 1035 1035 1035 1035 1035 1035 1035 1035 
1035 1035 1035 1035 1035 1035 1035 1035 1035 
1035 1035 1035 1035 1035 1035 1035 1035 1035 
1035 1035 1035 1035 1035 1035 1035 1035 1035 
1035 1035 1035 1035 1035 1035 1035 1035 1035 
1035 1035 1035 1035 1035 1035 1035 1035 1035 
1035 1035 1035 1035 1035 1035 1035 1035 1035 
1035 1035 1035 1035 1035 1035 1035 1035 1035 
1035 1035 1035 1035 1035 1035 1035 1035 1035 
1035 1035 1035 1035 1035 1035 1035 1035 1035 
1035 1035 1035 1035 1035 1035 1035 1035 1035 
1035 1035 1035 1035 1035 1035 1035 1035 1035 
1035 1035 1035 1035 1035 1035 1035 1035 1035 
1035 1035 1035 1035 1035 1035 1035 1035 1035 
1035 1035 1035 1035 1035 1035 1035 1035 1035 
1035 1035 1035 1035 1035 1035 1035 1035 1035 
1035 1035 1035 1035 1035 1035 1035 1035 1035 
1035 1035 1035 1035 1035 1035 1035 1035 1035 
1035 1035 1035 1035 1035 1035 1035 1035 1035 
1035 1035 1035 1035 1035 1035 1035 1035 1035 
1035 1035 1035 1035 1035 1035 1035 1035 1035 
1035 1035 1035 1035 1035 1035 1035 1035 1035 
1035 1035 1035 1035 1035 1035 1035 1035 1035 
1035 1035 1035 1035 1035 1035 1035 1035 1035 
1035 1035 1035 1035 1035 1035 1035 1035 1035 
1035 1035 1035 1035 1035 1035 1035 1035 1035 
1035 1035 1035 1035 1035 1035 1035 1035 1035 
1035 1035 1035 1035 1035 1035 1035 1035 1035 
1035 1035 1035 1035 1035 1035 1035 1035 1035 
1035 1035 1035 1035 1035 1035 1035 1035 1035 
1035 1035 1035 1035 1035 1035 1035 1035 1035 
1035 1035 1035 1035 1035 1035 1035 1035 1035 
1035 1035 1035 1035 1035 1035 1035 1035 1035 
1035 1035 1035 1035 1035 1035 1035 1035 1035 
1035 1035 1035 1035 1035 1035 1035 1035 1035 
1035 1035 1035 1035 1035 1035 1035 1035 1035 
1035 1035 1035 1035 1035 1035 1035 1035 1035 
1035 1035 1035 1035 1035 1035 1035 1035 1035 
1035 1035 1035 1035 1035 1035 1035 1035 1035 
1035 1035 1035 1035 1035 1035 1035 1035 1035 
1035 1035 1035 1035 1035 1035 1035 1035 1035 
1035 1035 1035 1035 1035 1035 1035 1035 1035 
1035 1035 1035 1035 1035 1035 1035 1035 1035 
1035 1035 1035 1035 1035 1035 1035 1035 1035 
1035 1035 1035 1035 1035 1035 1035 1035 1035 
1035 1035 1035 1035 1035 1035 1035 1035 1035 
1035 1035 1035 1035 1035 1035 1035 1035 1035 
1035 1035 1035 1035 1035 1035 1035 1035 1035 
1035 1035 1035 1035 1035 1035 1035 1035 1035 
1035 1035 1035 1035 1035 1035 1035 1035 1035 
1035 1035 1035 1035 1035 1035 1035 1035 1035 
1035 1035 1035 1035 1035 1035 1035 1035 1035 
1035 1035 1035 1035 1035 1035 1035 1035 1035 
1035 1035 1035 1035 1035 1035 1035 1035 1035 
1035 1035 1035 1035 1035 1035 1035 1035 1035 
1035 1035 1035 1035 1035 1035 1035 1035 1035 
1035 1035 1035 1035 1035 1035 1035 1035 1035 
1035 1035 1035 1035 1035 1035 1035 1035 1035 
1035 1035 1035 1035 1035 1035 1035 1035 1035 
1035 1035 1035 1035 1035 1035 1035 1035 1035 
1035 1035 1035 1035 1035 1035 1035 1035 1035 
1035 1035 1035 1035 1035 1035 1035 1035 1035 
1035 1035 1035 1035 1035 1035 1035 1035 1035 
1035 1035 1035 1035 1035 1035 1035 1035 1035 
1035 1035 1035 1035 1035 1035 1035 1035 1035 
1035 1035 1035 1035 1035 1035 1035 1035 1035 
1035 1035 1035 1035 1035 1035 1035 1035 1035 
1035 1035 1035 1035 1035 1035 1035 1035 1035 
1035 1035 1035 1035 1035 1035 1035 1035 1035 
1035 1035 1035 1035 1035 1035 1035 1035 1035 
1035 1035 1035 1035 1035 1035 1035 1035 1035 
1035 1035 1035 1035 1035 1035 1035 1035 1035 
1035 1035 1035 1035 1035 1035 1035 1035 1035 
1035 1035 1035 1035 1035 1035 1035 1035 1035 
1035 1035 1035 1035 1035 1035 1035 1035 1035 
1035 1035 1035 1035 1035 1035 1035 1035 1035 
1035 1035 1035 1035 1035 1035 1035 1035 1035 
1035 1035 1035 1035 1035 1035 1035 1035 1035 
1035 1035 1035 1035 1035 1035 1035 1035 1035 
1035 1035 1035 1035 1035 1035 1035 1035 1035 
1035 1035 1035 1035 1035 1035 1035 1035 1035 
1035 1035 1035 1035 1035 1035 1035 1035 1035 
1035 1035 1035 1035 1035 1035 1035 1035 1035 
1035 1035 1035 1035 1035 1035 1035 1035 1035 
1035 1035 1035 1035 1035 1035 1035 1035 1035 
1035 1035 1035 1035 1035 1035 1035 1035 1035 
1035 1035 1035 1035 1035 1035 1035 1035 1035 
1035 1035 1035 1035 1035 1035 1035 1035 1035 
1035 1035 1035 1035 1035 1035 1035 1035 1035 
1035 1035 1035 1035 1035 1035 1035 1035 1035 
1035 1035 1035 1035 1035 1035 1035 1035 1035 
1035 1035 1035 1035 1035 1035 1035 1035 1035 
1035 1035 1035 1035 1035 1035 1035 1035 1035 
1035 1035 1035 1035 1035 1035 1035 1035 1035 
1035 1035 1035 1035 1035 1035 1035 1035 1035 
1035 1035 1035 1035 1035 1035 1035 1035 1035 
1035 1035 1035 1035 1035 1035 1035 1035 1035 
1035 1035 1035 1035 1035 1035 1035 1035 1035 
1035 1035 1035 1035 1035 1035 1035 1035 1035 
1035 1035 1035 1035 1035 1035 1035 1035 1035 
1035 1035 1035 1035 1035 1035 1035 1035 1035 
1035 1035 1035 1035 1035 1035 1035 1035 1035 
1035 1035 1035 1035 1035 1035 1035 1035 1035 
1035 1035 1035 1035 1035 1035 1035 1035 1035 
1035 1035 1035 1035 1035 1035 1035 1035 1035 
1035 1035 1035 1035 1035 1035 1035 1035 1035 
1035 1035 1035 1035 1035 1035 1035 1035 1035 
1035 1035 1035 1035 1035 1035 1035 1035 1035 
1035 1035 1035 1035 1035 1035 1035 1035 1035 
1035 1035 1035 1035 1035 1035 1035 1035 1035 
1035 1035 1035 1035 1035 1035 1035 1035 1035 
1035 1035 1035 1035 1035 1035 1035 1035 1035 
1035 1035 1035 1035 1035 1035 1035 1035 1035 
1035 1035 1035 1035 1035 1035 1035 1035 1035 
1035 1035 1035 1035 1035 1035 1035 1035 1035 
1035 1035 1035 1035 1035 1035 1035 1035 1035 
1035 1035 1035 1035 1035 1035 1035 1035 1035 
1035 1035 1035 1035 1035 1035 1035 1035 1035 
1035 1035 1035 1035 1035 1035 1035 1035 1035 
1035 1035 1035 1035 1035 1035 1035 1035 1035 
1035 1035 1035 1035 1035 1035 1035 1035 1035 
1035 1035 1035 1035 1035 1035 1035 1035 1035 
1035 1035 1035 1035 1035 1035 1035 1035 1035 
1035 1035 1035 1035 1035 1035 1035 1035 1035 
1035 1035 1035 1035 1035 1035 1035 1035 1035 
1035 1035 1035 1035 1035 1035 1035 1035 1035 
1035 1035 1035 1035 1035 1035 1035 1035 1035 
1035 1035 1035 1035 1035 1035 1035 1035 1035 
1035 1035 1035 1035 1035 1035 1035 1035 1035 
1035 1035 1035 1035 1035 1035 1035 1035 1035 
1035 1035 1035 1035 1035 1035 1035 1035 1035 
1035 1035 1035 1035 1035 1035 1035 1035 1035 
1035 1035 1035 1035 1035 1035 1035 1035 1035 
1035 1035 1035 1035 1035 1035 1035 1035 1035 
1035 1035 1035 1035 1035 1035 1035 1035 1035 
1035 1035 1035 1035 1035 1035 1035 1035 1035 
1035 1035 1035 1035 1035 1035 1035 1035 1035 
1035 1035 1035 1035 1035 1035 1035 1035 1035 
1035 1035 1035 1035 1035 1035 1035 1035 1035 
1035 1035 1035 1035 1035 1035 1035 1035 1035 
1035 1035 1035 1035 1035 1035 1035 1035 1035 
1035 1035 1035 1035 1035 1035 1035 1035 1035 
1035 1035 1035 1035 1035 1035 1035 1035 1035 
1035 1035 1035 1035 1035 1035 1035 1035 1035 
1035 1035 1035 1035 1035 1035 1035 1035 1035 
1035 1035 1035 1035 1035 1035 1035 1035 1035 
1035 1035 1035 1035 1035 1035 1035 1035 1035 
1035 1035 1035 1035 1035 1035 1035 1035 1035 
1035 1035 1035 1035 1035 1035 1035 1035 1035 
1035 1035 1035 1035 1035 1035 1035 1035 1035 
1035 1035 1035 1035 1035 1035 1035 1035 1035 
1035 1035 1035 1035 1035 1035 1035 1035 1035 
1035 1035 1035 1035 1035 1035 1035 1035 1035 
1035 1035 1035 1035 1035 1035 1035 1035 1035 
1035 1035 1035 1035 1035 1035 1035 1035 1035 
1035 1035 1035 1035 1035 1035 1035 1035 1035 
1035 1035 1035 1035 1035 1035 1035 1035 1035 
1035 1035 1035 1035 1035 1035 1035 1035 1035 
1035 1035 1035 1035 1035 1035 1035 1035 1035 
1035 1035 1035 1035 1035 1035 1035 1035 1035 
1035 1035 1035 1035 1035 1035 1035 1035 1035 
1035 1035 1035 1035 1035 1035 1035 1035 1035 
1035 1035 1035 1035 1035 1035 1035 1035 1035 
1035 1035 1035 1035 1035 1035 1035 1035 1035 
1035 1035 1035 1035 1035 1035 1035 1035 1035 
1035 1035 1035 1035 1035 1035 1035 1035 1035 
1035 1035 1035 1035 1035 1035 1035 1035 1035 
1035 1035 1035 1035 1035 1035 1035 1035 1035 
1035 1035 1035 1035 1035 1035 1035 1035 1035 
1035 1035 1035 1035 1035 1035 1035 1035 1035 
1035 1035 1035 1035 1035 1035 1035 1035 1035 
1035 1035 1035 1035 1035 1035 1035 1035 1035 
1035 1035 1035 1035 1035 1035 1035 1035 1035 
1035 1035 1035 1035 1035 1035 1035 1035 1035 
1035 1035 1035 1035 1035 1035 1035 1035 1035 
1035 1035 1035 1035 1035 1035 1035 1035 1035 
1035 1035 1035 1035 1035 1035 1035 1035 1035 
1035 1035 1035 1035 1035 1035 1035 1035 1035 
1035 1035 1035 1035 1035 1035 1035 1035 1035 
1035 1035 1035 1035 1035 1035 1035 1035 1035 
1035 1035 1035 1035 1035 1035 1035 1035 1035 
1035 1035 1035 1035 1035 1035 1035 1035 1035 
1035 1035 1035 1035 1035 1035 1035 1035 1035 
1035 1035 1035 1035 1035 1035 1035 1035 1035 
1035 1035 1035 1035 1035 1035 1035 1035 1035 
1035 1035 1035 1035 1035 1035 1035 1035 1035 
1035 1035 1035 1035 1035 1035 1035 1035 1035 
1035 1035 1035 1035 1035 1035 1035 1035 1035 
1035 1035 1035 1035 1035 1035 1035 1035 1035 
1035 1035 1035 1035 1035 1035 1035 1035 1035 
1035 1035 1035 1035 1035 1035 1035 1035 1035 
1035 1035 1035 1035 1035 1035 1035 1035 1035 
1035 1035 1035 1035 1035 1035 1035 1035 1035 
1035 1035 1035 1035 1035 1035 1035 1035 1035 
1035 1035 1035 1035 1035 1035 1035 1035 1035 
1035 1035 1035 1035 1035 1035 1035 1035 1035 
1035 1035 1035 1035 1035 1035 1035 1035 1035 
1035 1035 1035 1035 1035 1035 1035 1035 1035 
1035 1035 1035 1035 1035 1035 1035 1035 1035 
1035 1035 1035 1035 1035 1035 1035 1035 1035 
1035 1035 1035 1035 1035 1035 1035 1035 1035 
1035 1035 1035 1035 1035 1035 1035 1035 1035 
1035 1035 1035 1035 1035 1035 1035 1035 1035 
1035 1035 1035 1035 1035 1035 1035 1035 1035 
1035 1035 1035 1035 1035 1035 1035 1035 1035 
1035 1035 1035 1035 1035 1035 1035 1035 1035 
1035 1035 1035 1035 1035 1035 1035 1035 1035 
1035 1035 1035 1035 1035 1035 1035 1035 1035 
1035 1035 1035 1035 1035 1035 1035 1035 1035 
1035 1035 1035 1035 1035 1035 1035 1035 1035 
1035 1035 1035 1035 1035 1035 1035 1035 1035 
1035 1035 1035 1035 1035 1035 1035 1035 1035 
1035 1035 1035 1035 1035 1035 1035 1035 1035 
1035 1035 1035 1035 1035 1035 1035 1035 1035 
1035 1035 1035 1035 1035 1035 1035 1035 1035 
1035 1035 1035 1035 1035 1035 1035 1035 1035 
1035 1035 1035 1035 1035 1035 1035 1035 1035 
1035 1035 1035 1035 1035 1035 1035 1035 1035 
1035 1035 1035 1035 1035 1035 1035 1035 1035 
1035 1035 1035 1035 1035 1035 1035 1035 1035 
1035 1035 1035 1035 1035 1035 1035 1035 1035 
1035 1035 1035 1035 1035 1035 1035 1035 1035 
1035 1035 1035 1035 1035 1035 1035 1035 1035 
1035 1035 1035 1035 1035 1035 1035 1035 1035 
1035 1035 1035 1035 1035 1035 1035 1035 1035 
1035 1035 1035 1035 1035 1035 1035 1035 1035 
1035 1035 1035 1035 1035 1035 1035 1035 1035 
1035 1035 1035 1035 1035 1035 1035 1035 1035 
1035 1035 1035 1035 1035 1035 1035 1035 1035 
1035 1035 1035 1035 1035 1035 1035 1035 1035 
1035 1035 1035 1035 1035 1035 1035 1035 1035 
1035 1035 1035 1035 1035 1035 1035 1035 1035 
1035 1035 1035 1035 1035 1035 1035 1035 1035 
1035 1035 1035 1035 1035 1035 1035 1035 1035 
1035 1035 1035 1035 1035 1035 1035 1035 1035 
1035 1035 1035 1035 1035 1035 1035 1035 1035 
1035 1035 1035 1035 1035 1035 1035 1035 1035 
1035 1035 1035 1035 1035 1035 1035 1035 1035 
1035 1035 1035 1035 1035 1035 1035 1035 1035 
1035 1035 1035 1035 1035 1035 1035 1035 1035 
1035 1035 1035 1035 1035 1035 1035 1035 1035 
1035 1035 1035 1035 1035 1035 1035 1035 1035 
1035 1035 1035 1035 1035 1035 1035 1035 1035 
1035 1035 1035 1035 1035 1035 1035 1035 1035 
1035 1035 1035 1035 1035 1035 1035 1035 1035 
1035 1035 1035 1035 1035 1035 1035 1035 1035 
1035 1035 1035 1035 1035 1035 1035 1035 1035 
1035 1035 1035 1035 1035 1035 1035 1035 1035 
1035 1035 1035 1035 1035 1035 1035 1035 1035 
1035 1035 1035 1035 1035 1035 1035 1035 1035 
1035 1035 1035 1035 1035 1035 1035 1035 1035 
1035 1035 1035 1035 1035 1035 1035 1035 1035 
1035 1035 1035 1035 1035 1035 1035 1035 1035 
1035 1035 1035 1035 1035 1035 1035 1035 1035 
1035 1035 1035 1035 1035 1035 1035 1035 1035 
1035 1035 1035 1035 1035 1035 1035 1035 1035 
1035 1035 1035 1035 1035 1035 1035 1035 1035 
1035 1035 1035 1035 1035 1035 1035 1035 1035 
1035 1035 1035 1035 1035 1035 1035 1035 1035 
1035 1035 1035 1035 1035 1035 1035 1035 1035 
1035 1035 1035 1035 1035 1035 1035 1035 1035 
1035 1035 1035 1035 1035 1035 1035 1035 1035 
1035 1035 1035 1035 1035 1035 1035 1035 1035 
1035 1035 1035 1035 1035 1035 1035 1035 1035 
1035 1035 1035 1035 1035 1035 1035 1035 1035 
1035 1035 1035 1035 1035 1035 1035 1035 1035 
1035 1035 1035 1035 1035 1035 1035 1035 1035 
1035 1035 1035 1035 1035 1035 1035 1035 1035 
1035 1035 1035 1035 1035 1035 1035 1035 1035 
1035 1035 1035 1035 1035 1035 1035 1035 1035 
1035 1035 1035 1035 1035 1035 1035 1035 1035 
1035 1035 1035 1035 1035 1035 1035 1035 1035 
1035 1035 1035 1035 1035 1035 1035 1035 1035 
1035 1035 1035 1035 1035 1035 1035 1035 1035 
1035 1035 1035 1035 1035 1035 1035 1035 1035 
1035 1035 1035 1035 1035 1035 1035 1035 1035 
1035 1035 1035 1035 1035 1035 1035 1035 1035 
1035 1035 1035 1035 1035 1035 1035 1035 1035 
1035 1035 1035 1035 1035 1035 1035 1035 1035 
1035 1035 1035 1035 1035 1035 1035 1035 1035 
1035 1035 1035 1035 1035 1035 1035 1035 1035 
1035 1035 1035 1035 1035 1035 1035 1035 1035 
1035 1035 1035 1035 1035 1035 1035 1035 1035 
1035 1035 1035 1035 1035 1035 1035 1035 1035 
1035 1035 1035 1035 1035 1035 1035 1035 1035 
1035 1035 1035 1035 1035 1035 1035 1035 1035 
1035 1035 1035 1035 1035 1035 1035 1035 1035 
1035 1035 1035 1035 1035 1035 1035 1035 1035 
1035 1035 1035 1035 1035 1035 1035 1035 1035 
1035 1035 1035 1035 1035 1035 1035 1035 1035 
1035 1035 1035 1035 1035 1035 1035 1035 1035 
1035 1035 1035 1035 1035 1035 1035 1035 1035 
1035 1035 1035 1035 1035 1035 1035 1035 1035 
1035 1035 1035 1035 1035 1035 1035 1035 1035 
1035 1035 1035 1035 1035 1035 1035 1035 1035 
1035 1035 1035 1035 1035 1035 1035 1035 1035 
1035 1035 1035 1035 1035 1035 1035 1035 1035 
1035 1035 1035 1035 1035 1035 1035 1035 1035 
1035 1035 1035 1035 1035 1035 1035 1035 1035 
1035 1035 1035 1035 1035 1035 1035 1035 1035 
1035 1035 1035 1035 1035 1035 1035 1035 1035 
1035 1035 1035 1035 1035 1035 1035 1035 1035 
1035 1035 1035 1035 1035 1035 1035 1035 1035 
1035 1035 1035 1035 1035 1035 1035 1035 1035 
1035 1035 1035 1035 1035 1035 1035 1035 1035 
1035 1035 1035 1035 1035 1035 1035 1035 1035 
1035 1035 1035 1035 1035 1035 1035 1035 1035 
1035 1035 1035 1035 1035 1035 1035 1035 1035 
1035 1035 1035 1035 1035 1035 1035 1035 1035 
1035 1035 1035 1035 1035 1035 1035 1035 1035 
1035 1035 1035 1035 1035 1035 1035 1035 1035 
1035 1035 1035 1035 1035 1035 1035 1035 1035 
1035 1035 1035 1035 1035 1035 1035 1035 1035 
1035 1035 1035 1035 1035 1035 1035 1035 1035 
1035 1035 1035 1035 1035 1035 1035 1035 1035 
1035 1035 1035 1035 1035 1035 1035 1035 1035 
1035 1035 1035 1035 1035 1035 1035 1035 1035 
1035 1035 1035 1035 1035 1035 1035 1035 1035 
1035 1035 1035 1035 1035 1035 1035 1035 1035 
1035 1035 1035 1035 1035 1035 1035 1035 1035 
1035 1035 1035 1035 1035 1035 1035 1035 1035 
1035 1035 1035 1035 1035 1035 1035 1035 1035 
1035 1035 1035 1035 1035 1035 1035 1035 1035 
1035 1035 1035 1035 1035 1035 1035 1035 1035 
1035 1035 1035 1035 1035 1035 1035 1035 1035 
1035 1035 1035 1035 1035 1035 1035 1035 1035 
1035 1035 1035 1035 1035 1035 1035 1035 1035 
1035 1035 1035 1035 1035 1035 1035 1035 1035 
1035 1035 1035 1035 1035 1035 1035 1035 1035 
1035 1035 1035 1035 1035 1035 1035 1035 1035 
1035 1035 1035 1035 1035 1035 1035 1035 1035 