# vtk DataFile Version 4.0
vtk output
ASCII
DATASET POLYDATA
POINTS 24038 float
-37.2135 -40.1088 38.774 -36.92 -40.5451 39.4049 -36.4365 -40.3739 38.881 
-38.2264 -40.155 38.7314 -37.7228 -40.5106 39.4673 -38.4881 -40.5352 39.1655 
-36.175 -40.107 37.9058 -35.8008 -40.5223 38.4113 -35.2532 -40.7072 37.5691 
-37.0583 -39.9099 37.973 -37.7796 -40.0413 37.8729 -38.9035 -40.3588 38.544 
-38.7523 -40.2269 37.9737 -39.3412 -40.508 38.0592 -35.1579 -40.2581 37.1524 
-34.8581 -40.4954 37.1832 -34.7888 -40.4849 36.914 -35.8119 -40.1429 36.8959 
-36.8173 -40.1145 37.1196 -37.4405 -40.4053 37.0474 -38.0993 -40.73 37.3841 
-39.2982 -40.7631 37.5539 -35.2487 -40.5472 36.6321 -36.0736 -40.5138 36.4931 
-36.7175 -40.7765 36.5989 -35.049 -41.2182 52.7259 -34.9383 -41.5612 53.3965 
-34.6696 -41.5289 52.8851 -35.3878 -41.6735 53.0878 -34.9257 -41.2338 52.1709 
-34.583 -41.5753 52.1782 -35.3392 -41.6649 52.0957 -34.0188 -41.2372 50.7458 
-33.9062 -41.5824 51.3592 -33.6655 -41.5882 50.8862 -34.9528 -41.6342 51.5583 
-34.3298 -41.4983 51.0027 -33.9262 -41.2667 50.2067 -33.6657 -41.8117 49.8966 
-34.4229 -41.4341 50.2588 -34.1803 -41.5404 49.6849 -34.1014 -41.1158 47.784 
-34.1556 -41.4236 48.3463 -33.5294 -41.4536 47.9426 -34.8055 -41.2166 47.6436 
-34.7535 -41.4536 48.3746 -35.3472 -41.7683 48.2096 -32.1574 -41.2326 46.9758 
-31.703 -41.6789 47.2089 -31.5093 -41.5686 46.8296 -33.0655 -41.134 47.0843 
-32.6194 -41.6371 47.4751 -33.9888 -41.1038 47.0057 -34.5726 -41.4251 47.0136 
-35.1134 -41.7868 47.4597 -32.1657 -41.6263 46.5562 -33.2393 -41.5492 46.5065 
-34.0202 -41.6476 46.6042 -36.0808 -41.2271 39.8801 -35.926 -41.5976 40.3256 
-35.4207 -41.4615 39.8244 -37.1019 -41.0216 39.927 -36.7461 -41.5537 40.502 
-38.3119 -41.0115 39.844 -37.7343 -41.535 40.5175 -39.3368 -41.117 39.7904 
-38.7251 -41.5069 40.5019 -40.0722 -41.235 39.695 -39.6933 -41.4835 40.4086 
-40.4472 -41.7505 40.0755 -35.1146 -41.1809 39.0487 -34.8037 -41.5704 39.3901 
-34.3552 -41.4527 38.7914 -36.0644 -40.8125 39.1596 -39.2032 -40.7761 38.8841 
-39.9785 -41.1076 38.8992 -40.4836 -41.6602 39.1563 -34.2298 -41.213 38.1307 
-33.7602 -41.5605 38.3295 -33.5223 -41.4785 37.5604 -35.0356 -40.9434 38.0926 
-39.8512 -40.9776 37.9967 -40.4007 -41.6512 38.1679 -34.157 -41.3006 37.2397 
-33.575 -41.497 36.9658 -35.0671 -40.874 36.9418 -34.8468 -41.5201 37.2576 
-34.3844 -41.6346 36.8622 -35.4333 -41.6187 37.1835 -37.1848 -40.9616 36.905 
-36.5528 -41.3937 36.7665 -37.088 -41.4734 37.2452 -37.8709 -41.5247 37.5576 
-38.9893 -41.527 37.4833 -39.9822 -41.5736 37.5228 -33.0196 -41.314 35.9254 
-32.8333 -41.4818 36.1698 -32.6643 -41.6116 35.7543 -33.9159 -41.7799 36.7153 
-33.1979 -41.5887 36.0892 -35.832 -41.2035 36.6041 -33.124 -41.6674 35.7537 
-35.3089 -42.0589 53.9196 -34.9752 -42.6105 54.5191 -34.6289 -42.3771 53.8631 
-35.899 -42.2664 53.9865 -35.6528 -42.4722 54.4348 -36.3801 -42.7309 53.897 
-34.2895 -42.3583 52.9224 -35.9222 -42.4125 53.4077 -35.6627 -42.4081 52.6006 
-34.2733 -41.9012 51.7922 -33.9022 -42.6711 52.5657 -33.659 -42.4245 51.8795 
-35.5483 -42.4662 51.9301 -33.4909 -42.4932 50.9728 -34.9153 -41.9028 50.7373 
-35.423 -42.4547 51.2255 -33.3498 -42.6407 49.9351 -34.9148 -41.9732 49.6275 
-35.4569 -42.6895 50.1725 -34.1075 -41.789 48.8823 -33.3733 -42.3225 48.9682 
-35.0968 -41.902 48.8549 -35.5134 -42.5402 49.0554 -33.2053 -42.0669 48.1677 
-33.025 -42.5247 48.3866 -32.6448 -42.4558 47.9805 -35.4183 -42.4509 48.0555 
-31.0629 -41.9952 47.0026 -31.1629 -42.2738 47.3439 -30.696 -42.5158 47.1079 
-31.8949 -42.3325 47.5927 -34.5658 -42.2389 46.9861 -35.1092 -42.3665 47.4588 
-31.0514 -42.5914 46.4851 -32.1421 -42.6405 46.3576 -32.8213 -42.29 46.3514 
-33.6699 -42.5235 46.5212 -38.1719 -42.1964 41.7761 -38.0299 -42.5407 42.3563 
-37.4934 -42.5456 41.9672 -39.2571 -42.1272 41.8678 -38.6828 -42.5179 42.5175 
-40.2582 -42.2196 41.6914 -39.6599 -42.4945 42.4359 -40.5902 -42.7891 41.7994 
-35.0683 -42.2164 40.8654 -35.0952 -42.5032 41.3956 -34.5061 -42.5173 40.9917 
-36.0986 -42.0251 40.8813 -35.7516 -42.5103 41.4668 -37.2668 -42.0418 41.1552 
-36.6819 -42.5192 41.5552 -38.143 -41.8761 41.0149 -39.0021 -41.8572 41.1294 
-40.1235 -41.9384 40.9944 -40.9336 -42.4571 41.3504 -40.854 -42.2454 41.1076 
-41.1754 -42.4981 40.9715 -34.0818 -42.1919 40.0382 -33.9593 -42.5145 40.4863 
-33.4497 -42.5283 39.9516 -35.0545 -41.8483 40.0904 -40.881 -42.4494 40.6263 
-40.6867 -42.5274 39.8311 -33.061 -42.1892 39.0157 -32.9203 -42.514 39.4254 
-32.4224 -42.5137 38.9399 -33.9848 -41.8375 39.0794 -40.5134 -42.555 38.7462 
-32.2752 -42.176 38.0028 -31.9218 -42.5013 38.4281 -31.5316 -42.5751 37.7799 
-33.1353 -41.8555 38.1038 -35.9788 -42.2686 37.7879 -35.477 -42.5658 37.9363 
-35.89 -42.6288 38.3096 -36.7269 -42.5563 38.4681 -37.0946 -42.0531 37.8418 
-37.7538 -42.5312 38.482 -38.2638 -42.0355 37.9228 -38.7377 -42.5805 38.344 
-39.1245 -42.2137 37.8024 -39.4942 -42.6583 38.0441 -40.3735 -42.2943 37.8269 
-31.9521 -42.1504 37.1 -31.4046 -42.4739 36.6787 -33.0347 -41.8602 36.8117 
-34.4171 -42.2031 36.8809 -35.0432 -42.3771 37.4327 -36.2413 -41.8137 37.1613 
-39.8237 -42.2794 37.6089 -32.1293 -41.9437 36.2089 -31.462 -42.4517 35.6797 
-33.8111 -42.5199 36.5948 -33.4301 -42.5262 35.9651 -32.1334 -42.1744 35.2493 
-31.6307 -42.5345 34.8407 -32.9397 -42.3256 35.3263 -32.6002 -42.7347 34.7269 
-32.0868 -42.6155 34.4955 -42.1245 -43.1927 57.8116 -41.933 -43.582 58.3101 
-41.4566 -43.4271 57.7902 -42.9802 -43.1921 57.8204 -42.737 -43.4799 58.4933 
-43.8019 -43.3069 57.9191 -43.678 -43.473 58.4524 -44.393 -43.816 57.9828 
-37.1079 -43.1347 56.77 -37.0392 -43.4552 57.4013 -36.4547 -43.4781 57.0203 
-38.2102 -43.1217 56.8561 -37.732 -43.4742 57.515 -39.2604 -43.1235 56.8251 
-38.751 -43.4843 57.4964 -40.2702 -43.1152 56.8027 -39.7327 -43.4982 57.4328 
-41.3031 -43.0833 56.9937 -40.6793 -43.4907 57.514 -42.1657 -43.115 56.9697 
-42.6999 -43.3729 57.0226 -43.3674 -43.436 57.3989 -43.9555 -43.4995 57.5903 
-36.1626 -43.1125 55.9337 -35.8512 -43.6334 56.5816 -35.4339 -43.6457 55.9801 
-36.936 -42.9769 55.968 -37.6768 -43.101 55.929 -38.7199 -43.1323 56.1056 
-39.7611 -43.1068 56.0813 -40.7883 -43.0802 56.065 -41.7153 -43.1773 56.0542 
-42.4983 -43.7055 55.9878 -35.2905 -43.0436 55.1515 -34.9476 -43.8598 55.4284 
-34.6541 -43.3023 54.7233 -36.2019 -42.8052 54.7642 -37.1208 -43.0467 54.9978 
-37.7445 -43.4083 55.0867 -38.3117 -43.52 55.3874 -39.2462 -43.5249 55.4521 
-40.3003 -43.4814 55.4017 -41.3176 -43.4807 55.352 -42.0479 -43.665 55.3311 
-34.2695 -43.3951 53.9427 -36.9598 -42.9769 54.1338 -37.8656 -43.4414 54.4795 
-37.7091 -43.2996 53.9684 -38.3495 -43.8138 54.0393 -33.9937 -43.1478 53.174 
-33.9096 -43.7216 53.5967 -33.6591 -43.5124 52.9029 -35.932 -43.093 52.8038 
-36.3003 -43.2697 53.1647 -37.0289 -43.6479 53.4601 -38.0426 -43.7975 53.5851 
-33.4831 -43.5141 51.9956 -35.632 -43.4162 52.0825 -35.9125 -43.7286 52.7191 
-33.3346 -43.4301 50.9419 -35.5587 -43.5977 50.9778 -33.1028 -43.2101 50.0289 
-32.9943 -43.7316 50.556 -32.7363 -43.6746 49.8505 -35.5909 -43.5878 49.9425 
-32.8847 -42.94 48.9564 -32.3952 -43.6191 48.9902 -35.4202 -43.4388 48.8848 
-31.098 -42.9859 47.7337 -31.0746 -43.6283 48.2216 -30.403 -43.5904 47.9898 
-32.1396 -43.018 48.1788 -31.6958 -43.7229 48.4791 -34.9599 -43.0065 47.7922 
-34.5334 -43.7153 47.9128 -34.9875 -43.7396 48.5155 -30.2048 -43.0898 47.0894 
-29.7155 -43.5111 47.3802 -29.4828 -43.6147 46.8473 -34.2354 -43.1208 47.1321 
-33.6987 -43.4904 46.7894 -34.0494 -43.9099 47.3339 -30.1439 -43.6151 46.3725 
-30.7724 -43.2613 45.9645 -30.7283 -43.6763 45.9513 -31.2091 -43.3512 45.9553 
-31.8346 -43.6693 46.2673 -32.9853 -43.3961 46.4562 -30.9788 -43.5211 45.7777 
-40.1257 -43.2368 43.6637 -39.8155 -43.5966 44.2647 -39.379 -43.4428 43.8636 
-40.4095 -43.6066 44.1523 -38.0623 -43.0291 42.7899 -38.0652 -43.538 43.3223 
-37.509 -43.5134 42.9409 -39.2198 -42.9925 43.179 -38.6581 -43.5101 43.5788 
-40.2221 -42.855 42.8085 -41.0416 -43.5595 43.5639 -41.0608 -43.1374 43.0854 
-41.8369 -43.2886 42.7183 -41.8108 -43.558 43.0961 -42.2221 -43.5234 42.8893 
-35.1133 -43.0043 41.8028 -34.8394 -43.8025 42.3131 -34.4545 -43.4369 41.8702 
-36.2351 -43.0065 41.9743 -35.759 -43.6839 42.472 -37.1115 -43.0186 42.2076 
-36.6937 -43.505 42.5362 -41.0414 -43.0747 42.3018 -41.5938 -43.5198 42.2213 
-42.1281 -43.5154 42.6256 -34.0012 -43.0067 41.0091 -34.0314 -43.5127 41.5507 
-33.5238 -43.5413 41.025 -41.0122 -42.7671 41.0851 -40.7375 -43.3826 40.9077 
-40.9305 -43.5395 41.7236 -32.9623 -43.0181 39.96 -33.0117 -43.5569 40.4907 
-32.4908 -43.5405 39.9661 -40.4196 -43.4616 39.8325 -31.9432 -43.0086 38.9489 
-31.9697 -43.524 39.4478 -31.4635 -43.5186 38.9565 -35.0658 -43.2117 38.8536 
-34.5001 -43.5019 38.8162 -34.9718 -43.7062 39.2031 -35.6958 -43.698 39.4611 
-36.0874 -43.0112 38.8745 -36.7361 -43.5308 39.4935 -37.2577 -43.02 38.9963 
-37.7508 -43.5297 39.4893 -38.2835 -43.0568 38.9476 -38.7591 -43.5392 39.4475 
-39.352 -43.0986 38.7512 -39.711 -43.5689 39.5082 -40.1091 -43.1736 38.9546 
-31.1454 -43.1443 38.1361 -30.971 -43.5196 38.4258 -30.5582 -43.56 37.7833 
-34.2684 -43.2294 38.2025 -33.5568 -43.5256 37.6404 -33.8039 -43.8614 38.4136 
-35.0765 -42.8563 38.1168 -40.0611 -42.8102 38.184 -30.8266 -42.9972 37.0447 
-30.2708 -43.4235 36.8838 -34.1884 -42.9573 37.2787 -33.4995 -43.3656 36.6296 
-30.3024 -43.2361 36.0948 -29.8803 -43.6706 36.5296 -29.6884 -43.847 35.8252 
-30.9376 -42.8225 36.0961 -33.4179 -43.7484 35.7269 -30.1355 -43.4224 35.3712 
-30.3836 -43.463 34.622 -30.9186 -42.9722 35.064 -33.0425 -42.9642 34.9313 
-33.3643 -43.3155 35.2114 -30.9681 -43.2251 34.1447 -30.5992 -43.5049 34.0236 
-31.6719 -43.0199 34.0829 -32.4361 -43.4063 33.9604 -33.0316 -43.6891 34.5536 
-31.0608 -43.6307 33.5255 -32.0157 -43.6015 33.398 -41.1318 -44.1686 59.7581 
-40.8998 -44.8046 60.3451 -40.3568 -44.3938 59.8536 -42.2699 -44.1225 59.9114 
-41.9705 -44.6441 60.4125 -43.3031 -44.0838 59.9107 -42.9843 -44.6041 60.43 
-44.2267 -44.159 59.7678 -43.7605 -44.4686 60.2956 -44.4689 -44.8125 60.0366 
[...]
CELL_DATA 48128
SCALARS scalars float
LOOKUP_TABLE default
1029 1029 1029 1029 1029 1029 1029 1029 1029 
1029 1029 1029 1029 1029 1029 1029 1029 1029 
1029 1029 1029 1029 1029 1029 1029 1029 1029 
1029 1029 1029 1029 1029 1029 1029 1029 1029 
1029 1029 1029 1029 1029 1029 1029 1029 1029 
1029 1029 1029 1029 1029 1029 1029 1029 1029 
1029 1029 1029 1029 1029 1029 1029 1029 1029 
1029 1029 1029 1029 1029 1029 1029 1029 1029 
1029 1029 1029 1029 1029 1029 1029 1029 1029 
1029 1029 1029 1029 1029 1029 1029 1029 1029 
1029 1029 1029 1029 1029 1029 1029 1029 1029 
1029 1029 1029 1029 1029 1029 1029 1029 1029 
1029 1029 1029 1029 1029 1029 1029 1029 1029 
1029 1029 1029 1029 1029 1029 1029 1029 1029 
1029 1029 1029 1029 1029 1029 1029 1029 1029 
1029 1029 1029 1029 1029 1029 1029 1029 1029 
1029 1029 1029 1029 1029 1029 1029 1029 1029 
1029 1029 1029 1029 1029 1029 1029 1029 1029 
1029 1029 1029 1029 1029 1029 1029 1029 1029 
1029 1029 1029 1029 1029 1029 1029 1029 1029 
1029 1029 1029 1029 1029 1029 1029 1029 1029 
1029 1029 1029 1029 1029 1029 1029 1029 1029 
1029 1029 1029 1029 1029 1029 1029 1029 1029 
1029 1029 1029 1029 1029 1029 1029 1029 1029 
1029 1029 1029 1029 1029 1029 1029 1029 1029 
1029 1029 1029 1029 1029 1029 1029 1029 1029 
1029 1029 1029 1029 1029 1029 1029 1029 1029 
1029 1029 1029 1029 1029 1029 1029 1029 1029 
1029 1029 1029 1029 1029 1029 1029 1029 1029 
1029 1029 1029 1029 1029 1029 1029 1029 1029 
1029 1029 1029 1029 1029 1029 1029 1029 1029 
1029 1029 1029 1029 1029 1029 1029 1029 1029 
1029 1029 1029 1029 1029 1029 1029 1029 1029 
1029 1029 1029 1029 1029 1029 1029 1029 1029 
1029 1029 1029 1029 1029 1029 1029 1029 1029 
1029 1029 1029 1029 1029 1029 1029 1029 1029 
1029 1029 1029 1029 1029 1029 1029 1029 1029 
1029 1029 1029 1029 1029 1029 1029 1029 1029 
1029 1029 1029 1029 1029 1029 1029 1029 1029 
1029 1029 1029 1029 1029 1029 1029 1029 1029 
1029 1029 1029 1029 1029 1029 1029 1029 1029 
1029 1029 1029 1029 1029 1029 1029 1029 1029 
1029 1029 1029 1029 1029 1029 1029 1029 1029 
1029 1029 1029 1029 1029 1029 1029 1029 1029 
1029 1029 1029 1029 1029 1029 1029 1029 1029 
1029 1029 1029 1029 1029 1029 1029 1029 1029 
1029 1029 1029 1029 1029 1029 1029 1029 1029 
1029 1029 1029 1029 1029 1029 1029 1029 1029 
1029 1029 1029 1029 1029 1029 1029 1029 1029 
1029 1029 1029 1029 1029 1029 1029 1029 1029 
1029 1029 1029 1029 1029 1029 1029 1029 1029 
1029 1029 1029 1029 1029 1029 1029 1029 1029 
1029 1029 1029 1029 1029 1029 1029 1029 1029 
1029 1029 1029 1029 1029 1029 1029 1029 1029 
1029 1029 1029 1029 1029 1029 1029 1029 1029 
1029 1029 1029 1029 1029 1029 1029 1029 1029 
1029 1029 1029 1029 1029 1029 1029 1029 1029 
1029 1029 1029 1029 1029 1029 1029 1029 1029 
1029 1029 1029 1029 1029 1029 1029 1029 1029 
1029 1029 1029 1029 1029 1029 1029 1029 1029 
1029 1029 1029 1029 1029 1029 1029 1029 1029 
1029 1029 1029 1029 1029 1029 1029 1029 1029 
1029 1029 1029 1029 1029 1029 1029 1029 1029 
1029 1029 1029 1029 1029 1029 1029 1029 1029 
1029 1029 1029 1029 1029 1029 1029 1029 1029 
1029 1029 1029 1029 1029 1029 1029 1029 1029 
1029 1029 1029 1029 1029 1029 1029 1029 1029 
1029 1029 1029 1029 1029 1029 1029 1029 1029 
1029 1029 1029 1029 1029 1029 1029 1029 1029 
1029 1029 1029 1029 1029 1029 1029 1029 1029 
1029 1029 1029 1029 1029 1029 1029 1029 1029 
1029 1029 1029 1029 1029 1029 1029 1029 1029 
1029 1029 1029 1029 1029 1029 1029 1029 1029 
1029 1029 1029 1029 1029 1029 1029 1029 1029 
1029 1029 1029 1029 1029 1029 1029 1029 1029 
1029 1029 1029 1029 1029 1029 1029 1029 1029 
1029 1029 1029 1029 1029 1029 1029 1029 1029 
1029 1029 1029 1029 1029 1029 1029 1029 1029 
1029 1029 1029 1029 1029 1029 1029 1029 1029 
1029 1029 1029 1029 1029 1029 1029 1029 1029 
1029 1029 1029 1029 1029 1029 1029 1029 1029 
1029 1029 1029 1029 1029 1029 1029 1029 1029 
1029 1029 1029 1029 1029 1029 1029 1029 1029 
1029 1029 1029 1029 1029 1029 1029 1029 1029 
1029 1029 1029 1029 1029 1029 1029 1029 1029 
1029 1029 1029 1029 1029 1029 1029 1029 1029 
1029 1029 1029 1029 1029 1029 1029 1029 1029 
1029 1029 1029 1029 1029 1029 1029 1029 1029 
1029 1029 1029 1029 1029 1029 1029 1029 1029 
1029 1029 1029 1029 1029 1029 1029 1029 1029 
1029 1029 1029 1029 1029 1029 1029 1029 1029 
1029 1029 1029 1029 1029 1029 1029 1029 1029 
1029 1029 1029 1029 1029 1029 1029 1029 1029 
1029 1029 1029 1029 1029 1029 1029 1029 1029 
1029 1029 1029 1029 1029 1029 1029 1029 1029 
1029 1029 1029 1029 1029 1029 1029 1029 1029 
1029 1029 1029 1029 1029 1029 1029 1029 1029 
1029 1029 1029 1029 1029 1029 1029 1029 1029 
1029 1029 1029 1029 1029 1029 1029 1029 1029 
1029 1029 1029 1029 1029 1029 1029 1029 1029 
1029 1029 1029 1029 1029 1029 1029 1029 1029 
1029 1029 1029 1029 1029 1029 1029 1029 1029 
1029 1029 1029 1029 1029 1029 1029 1029 1029 
1029 1029 1029 1029 1029 1029 1029 1029 1029 
1029 1029 1029 1029 1029 1029 1029 1029 1029 
1029 1029 1029 1029 1029 1029 1029 1029 1029 
1029 1029 1029 1029 1029 1029 1029 1029 1029 
1029 1029 1029 1029 1029 1029 1029 1029 1029 
1029 1029 1029 1029 1029 1029 1029 1029 1029 
1029 1029 1029 1029 1029 1029 1029 1029 1029 
1029 1029 1029 1029 1029 1029 1029 1029 1029 
1029 1029 1029 1029 1029 1029 1029 1029 1029 
1029 1029 1029 1029 1029 1029 1029 1029 1029 
1029 1029 1029 1029 1029 1029 1029 1029 1029 
1029 1029 1029 1029 1029 1029 1029 1029 1029 
1029 1029 1029 1029 1029 1029 1029 1029 1029 
1029 1029 1029 1029 1029 1029 1029 1029 1029 
1029 1029 1029 1029 1029 1029 1029 1029 1029 
1029 1029 1029 1029 1029 1029 1029 1029 1029 
1029 1029 1029 1029 1029 1029 1029 1029 1029 
1029 1029 1029 1029 1029 1029 1029 1029 1029 
1029 1029 1029 1029 1029 1029 1029 1029 1029 
1029 1029 1029 1029 1029 1029 1029 1029 1029 
1029 1029 1029 1029 1029 1029 1029 1029 1029 
1029 1029 1029 1029 1029 1029 1029 1029 1029 
1029 1029 1029 1029 1029 1029 1029 1029 1029 
1029 1029 1029 1029 1029 1029 1029 1029 1029 
1029 1029 1029 1029 1029 1029 1029 1029 1029 
1029 1029 1029 1029 1029 1029 1029 1029 1029 
1029 1029 1029 1029 1029 1029 1029 1029 1029 
1029 1029 1029 1029 1029 1029 1029 1029 1029 
1029 1029 1029 1029 1029 1029 1029 1029 1029 
1029 1029 1029 1029 1029 1029 1029 1029 1029 
1029 1029 1029 1029 1029 1029 1029 1029 1029 
1029 1029 1029 1029 1029 1029 1029 1029 1029 
1029 1029 1029 1029 1029 1029 1029 1029 1029 
1029 1029 1029 1029 1029 1029 1029 1029 1029 
1029 1029 1029 1029 1029 1029 1029 1029 1029 
1029 1029 1029 1029 1029 1029 1029 1029 1029 
1029 1029 1029 1029 1029 1029 1029 1029 1029 
1029 1029 1029 1029 1029 1029 1029 1029 1029 
1029 1029 1029 1029 1029 1029 1029 1029 1029 
1029 1029 1029 1029 1029 1029 1029 1029 1029 
1029 1029 1029 1029 1029 1029 1029 1029 1029 
1029 1029 1029 1029 1029 1029 1029 1029 1029 
1029 1029 1029 1029 1029 1029 1029 1029 1029 
1029 1029 1029 1029 1029 1029 1029 1029 1029 
1029 1029 1029 1029 1029 1029 1029 1029 1029 
1029 1029 1029 1029 1029 1029 1029 1029 1029 
1029 1029 1029 1029 1029 1029 1029 1029 1029 
1029 1029 1029 1029 1029 1029 1029 1029 1029 
1029 1029 1029 1029 1029 1029 1029 1029 1029 
1029 1029 1029 1029 1029 1029 1029 1029 1029 
1029 1029 1029 1029 1029 1029 1029 1029 1029 
1029 1029 1029 1029 1029 1029 1029 1029 1029 
1029 1029 1029 1029 1029 1029 1029 1029 1029 
1029 1029 1029 1029 1029 1029 1029 1029 1029 
1029 1029 1029 1029 1029 1029 1029 1029 1029 
1029 1029 1029 1029 1029 1029 1029 1029 1029 
1029 1029 1029 1029 1029 1029 1029 1029 1029 
1029 1029 1029 1029 1029 1029 1029 1029 1029 
1029 1029 1029 1029 1029 1029 1029 1029 1029 
1029 1029 1029 1029 1029 1029 1029 1029 1029 
1029 1029 1029 1029 1029 1029 1029 1029 1029 
1029 1029 1029 1029 1029 1029 1029 1029 1029 
1029 1029 1029 1029 1029 1029 1029 1029 1029 
1029 1029 1029 1029 1029 1029 1029 1029 1029 
1029 1029 1029 1029 1029 1029 1029 1029 1029 
1029 1029 1029 1029 1029 1029 1029 1029 1029 
1029 1029 1029 1029 1029 1029 1029 1029 1029 
1029 1029 1029 1029 1029 1029 1029 1029 1029 
1029 1029 1029 1029 1029 1029 1029 1029 1029 
1029 1029 1029 1029 1029 1029 1029 1029 1029 
1029 1029 1029 1029 1029 1029 1029 1029 1029 
1029 1029 1029 1029 1029 1029 1029 1029 1029 
1029 1029 1029 1029 1029 1029 1029 1029 1029 
1029 1029 1029 1029 1029 1029 1029 1029 1029 
1029 1029 1029 1029 1029 1029 1029 1029 1029 
1029 1029 1029 1029 1029 1029 1029 1029 1029 
1029 1029 1029 1029 1029 1029 1029 1029 1029 
1029 1029 1029 1029 1029 1029 1029 1029 1029 
1029 1029 1029 1029 1029 1029 1029 1029 1029 
1029 1029 1029 1029 1029 1029 1029 1029 1029 
1029 1029 1029 1029 1029 1029 1029 1029 1029 
1029 1029 1029 1029 1029 1029 1029 1029 1029 
1029 1029 1029 1029 1029 1029 1029 1029 1029 
1029 1029 1029 1029 1029 1029 1029 1029 1029 
1029 1029 1029 1029 1029 1029 1029 1029 1029 
1029 1029 1029 1029 1029 1029 1029 1029 1029 
1029 1029 1029 1029 1029 1029 1029 1029 1029 
1029 1029 1029 1029 1029 1029 1029 1029 1029 
1029 1029 1029 1029 1029 1029 1029 1029 1029 
1029 1029 1029 1029 1029 1029 1029 1029 1029 
1029 1029 1029 1029 1029 1029 1029 1029 1029 
1029 1029 1029 1029 1029 1029 1029 1029 1029 
1029 1029 1029 1029 1029 1029 1029 1029 1029 
1029 1029 1029 1029 1029 1029 1029 1029 1029 
1029 1029 1029 1029 1029 1029 1029 1029 1029 
1029 1029 1029 1029 1029 1029 1029 1029 1029 
1029 1029 1029 1029 1029 1029 1029 1029 1029 
1029 1029 1029 1029 1029 1029 1029 1029 1029 
1029 1029 1029 1029 1029 1029 1029 1029 1029 
1029 1029 1029 1029 1029 1029 1029 1029 1029 
1029 1029 1029 1029 1029 1029 1029 1029 1029 
1029 1029 1029 1029 1029 1029 1029 1029 1029 
1029 1029 1029 1029 1029 1029 1029 1029 1029 
1029 1029 1029 1029 1029 1029 1029 1029 1029 
1029 1029 1029 1029 1029 1029 1029 1029 1029 
1029 1029 1029 1029 1029 1029 1029 1029 1029 
1029 1029 1029 1029 1029 1029 1029 1029 1029 
1029 1029 1029 1029 1029 1029 1029 1029 1029 
1029 1029 1029 1029 1029 1029 1029 1029 1029 
1029 1029 1029 1029 1029 1029 1029 1029 1029 
1029 1029 1029 1029 1029 1029 1029 1029 1029 
1029 1029 1029 1029 1029 1029 1029 1029 1029 
1029 1029 1029 1029 1029 1029 1029 1029 1029 
1029 1029 1029 1029 1029 1029 1029 1029 1029 
1029 1029 1029 1029 1029 1029 1029 1029 1029 
1029 1029 1029 1029 1029 1029 1029 1029 1029 
1029 1029 1029 1029 1029 1029 1029 1029 1029 
1029 1029 1029 1029 1029 1029 1029 1029 1029 
1029 1029 1029 1029 1029 1029 1029 1029 1029 
1029 1029 1029 1029 1029 1029 1029 1029 1029 
1029 1029 1029 1029 1029 1029 1029 1029 1029 
1029 1029 1029 1029 1029 1029 1029 1029 1029 
1029 1029 1029 1029 1029 1029 1029 1029 1029 
1029 1029 1029 1029 1029 1029 1029 1029 1029 
1029 1029 1029 1029 1029 1029 1029 1029 1029 
1029 1029 1029 1029 1029 1029 1029 1029 1029 
1029 1029 1029 1029 1029 1029 1029 1029 1029 
1029 1029 1029 1029 1029 1029 1029 1029 1029 
1029 1029 1029 1029 1029 1029 1029 1029 1029 
1029 1029 1029 1029 1029 1029 1029 1029 1029 
1029 1029 1029 1029 1029 1029 1029 1029 1029 
1029 1029 1029 1029 1029 1029 1029 1029 1029 
1029 1029 1029 1029 1029 1029 1029 1029 1029 
1029 1029 1029 1029 1029 1029 1029 1029 1029 
1029 1029 1029 1029 1029 1029 1029 1029 1029 
1029 1029 1029 1029 1029 1029 1029 1029 1029 
1029 1029 1029 1029 1029 1029 1029 1029 1029 
1029 1029 1029 1029 1029 1029 1029 1029 1029 
1029 1029 1029 1029 1029 1029 1029 1029 1029 
1029 1029 1029 1029 1029 1029 1029 1029 1029 
1029 1029 1029 1029 1029 1029 1029 1029 1029 
1029 1029 1029 1029 1029 1029 1029 1029 1029 
1029 1029 1029 1029 1029 1029 1029 1029 1029 
1029 1029 1029 1029 1029 1029 1029 1029 1029 
1029 1029 1029 1029 1029 1029 1029 1029 1029 
1029 1029 1029 1029 1029 1029 1029 1029 1029 
1029 1029 1029 1029 1029 1029 1029 1029 1029 
1029 1029 1029 1029 1029 1029 1029 1029 1029 
1029 1029 1029 1029 1029 1029 1029 1029 1029 
1029 1029 1029 1029 1029 1029 1029 1029 1029 
1029 1029 1029 1029 1029 1029 1029 1029 1029 
1029 1029 1029 1029 1029 1029 1029 1029 1029 
1029 1029 1029 1029 1029 1029 1029 1029 1029 
1029 1029 1029 1029 1029 1029 1029 1029 1029 
1029 1029 1029 1029 1029 1029 1029 1029 1029 
1029 1029 1029 1029 1029 1029 1029 1029 1029 
1029 1029 1029 1029 1029 1029 1029 1029 1029 
1029 1029 1029 1029 1029 1029 1029 1029 1029 
1029 1029 1029 1029 1029 1029 1029 1029 1029 
1029 1029 1029 1029 1029 1029 1029 1029 1029 
1029 1029 1029 1029 1029 1029 1029 1029 1029 
1029 1029 1029 1029 1029 1029 1029 1029 1029 
1029 1029 1029 1029 1029 1029 1029 1029 1029 
1029 1029 1029 1029 1029 1029 1029 1029 1029 
1029 1029 1029 1029 1029 1029 1029 1029 1029 
1029 1029 1029 1029 1029 1029 1029 1029 1029 
1029 1029 1029 1029 1029 1029 1029 1029 1029 
1029 1029 1029 1029 1029 1029 1029 1029 1029 
1029 1029 1029 1029 1029 1029 1029 1029 1029 
1029 1029 1029 1029 1029 1029 1029 1029 1029 
1029 1029 1029 1029 1029 1029 1029 1029 1029 
1029 1029 1029 1029 1029 1029 1029 1029 1029 
1029 1029 1029 1029 1029 1029 1029 1029 1029 
1029 1029 1029 1029 1029 1029 1029 1029 1029 
1029 1029 1029 1029 1029 1029 1029 1029 1029 
1029 1029 1029 1029 1029 1029 1029 1029 1029 
1029 1029 1029 1029 1029 1029 1029 1029 1029 
1029 1029 1029 1029 1029 1029 1029 1029 1029 
1029 1029 1029 1029 1029 1029 1029 1029 1029 
1029 1029 1029 1029 1029 1029 1029 1029 1029 
1029 1029 1029 1029 1029 1029 1029 1029 1029 
1029 1029 1029 1029 1029 1029 1029 1029 1029 
1029 1029 1029 1029 1029 1029 1029 1029 1029 
1029 1029 1029 1029 1029 1029 1029 1029 1029 
1029 1029 1029 1029 1029 1029 1029 1029 1029 
1029 1029 1029 1029 1029 1029 1029 1029 1029 
1029 1029 1029 1029 1029 1029 1029 1029 1029 
1029 1029 1029 1029 1029 1029 1029 1029 1029 
1029 1029 1029 1029 1029 1029 1029 1029 1029 
1029 1029 1029 1029 1029 1029 1029 1029 1029 
1029 1029 1029 1029 1029 1029 1029 1029 1029 
1029 1029 1029 1029 1029 1029 1029 1029 1029 
1029 1029 1029 1029 1029 1029 1029 1029 1029 
1029 1029 1029 1029 1029 1029 1029 1029 1029 
1029 1029 1029 1029 1029 1029 1029 1029 1029 
1029 1029 1029 1029 1029 1029 1029 1029 1029 
1029 1029 1029 1029 1029 1029 1029 1029 1029 
1029 1029 1029 1029 1029 1029 1029 1029 1029 
1029 1029 1029 1029 1029 1029 1029 1029 1029 
1029 1029 1029 1029 1029 1029 1029 1029 1029 
1029 1029 1029 1029 1029 1029 1029 1029 1029 
1029 1029 1029 1029 1029 1029 1029 1029 1029 
1029 1029 1029 1029 1029 1029 1029 1029 1029 
1029 1029 1029 1029 1029 1029 1029 1029 1029 
1029 1029 1029 1029 1029 1029 1029 1029 1029 
1029 1029 1029 1029 1029 1029 1029 1029 1029 
1029 1029 1029 1029 1029 1029 1029 1029 1029 
1029 1029 1029 1029 1029 1029 1029 1029 1029 
1029 1029 1029 1029 1029 1029 1029 1029 1029 
1029 1029 1029 1029 1029 1029 1029 1029 1029 
1029 1029 1029 1029 1029 1029 1029 1029 1029 
1029 1029 1029 1029 1029 1029 1029 1029 1029 
1029 1029 1029 1029 1029 1029 1029 1029 1029 
1029 1029 1029 1029 1029 1029 1029 1029 1029 
1029 1029 1029 1029 1029 1029 1029 1029 1029 
1029 1029 1029 1029 1029 1029 1029 1029 1029 
1029 1029 1029 1029 1029 1029 1029 1029 1029 
1029 1029 1029 1029 1029 1029 1029 1029 1029 
1029 1029 1029 1029 1029 1029 1029 1029 1029 
1029 1029 1029 1029 1029 1029 1029 1029 1029 
1029 1029 1029 1029 1029 1029 1029 1029 1029 
1029 1029 1029 1029 1029 1029 1029 1029 1029 
1029 1029 1029 1029 1029 1029 1029 1029 1029 
1029 1029 1029 1029 1029 1029 1029 1029 1029 
1029 1029 1029 1029 1029 1029 1029 1029 1029 
1029 1029 1029 1029 1029 1029 1029 1029 1029 
1029 1029 1029 1029 1029 1029 1029 1029 1029 
1029 1029 1029 1029 1029 1029 1029 1029 1029 
1029 1029 1029 1029 1029 1029 1029 1029 1029 
1029 1029 1029 1029 1029 1029 1029 1029 1029 
1029 1029 1029 1029 1029 1029 1029 1029 1029 
1029 1029 1029 1029 1029 1029 1029 1029 1029 
1029 1029 1029 1029 1029 1029 1029 1029 1029 
1029 1029 1029 1029 1029 1029 1029 1029 1029 
1029 1029 1029 1029 1029 1029 1029 1029 1029 
1029 1029 1029 1029 1029 1029 1029 1029 1029 
1029 1029 1029 1029 1029 1029 1029 1029 1029 
1029 1029 1029 1029 1029 1029 1029 1029 1029 
1029 1029 1029 1029 1029 1029 1029 1029 1029 
1029 1029 1029 1029 1029 1029 1029 1029 1029 
1029 1029 1029 1029 1029 1029 1029 1029 1029 
1029 1029 1029 1029 1029 1029 1029 1029 1029 
1029 1029 1029 1029 1029 1029 1029 1029 1029 
1029 1029 1029 1029 1029 1029 1029 1029 1029 
1029 1029 1029 1029 1029 1029 1029 1029 1029 
1029 1029 1029 1029 1029 1029 1029 1029 1029 
1029 1029 1029 1029 1029 1029 1029 1029 1029 
1029 1029 1029 1029 1029 1029 1029 1029 1029 
1029 1029 1029 1029 1029 1029 1029 1029 1029 
1029 1029 1029 1029 1029 1029 1029 1029 1029 
1029 1029 1029 1029 1029 1029 1029 1029 1029 
1029 1029 1029 1029 1029 1029 1029 1029 1029 
1029 1029 1029 1029 1029 1029 1029 1029 1029 
1029 1029 1029 1029 1029 1029 1029 1029 1029 
1029 1029 1029 1029 1029 1029 1029 1029 1029 
1029 1029 1029 1029 1029 1029 1029 1029 1029 
1029 1029 1029 1029 1029 1029 1029 1029 1029 
1029 1029 1029 1029 1029 1029 1029 1029 1029 
1029 1029 1029 1029 1029 1029 1029 1029 1029 
1029 1029 1029 1029 1029 1029 1029 1029 1029 
1029 1029 1029 1029 1029 1029 1029 1029 1029 
1029 1029 1029 1029 1029 1029 1029 1029 1029 
1029 1029 1029 1029 1029 1029 1029 1029 1029 
1029 1029 1029 1029 1029 1029 1029 1029 1029 
1029 1029 1029 1029 1029 1029 1029 1029 1029 
1029 1029 1029 1029 1029 1029 1029 1029 1029 
1029 1029 1029 1029 1029 1029 1029 1029 1029 
1029 1029 1029 1029 1029 1029 1029 1029 1029 
1029 1029 1029 1029 1029 1029 1029 1029 1029 
1029 1029 1029 1029 1029 1029 1029 1029 1029 
1029 1029 1029 1029 1029 1029 1029 1029 1029 
1029 1029 1029 1029 1029 1029 1029 1029 1029 
1029 1029 1029 1029 1029 1029 1029 1029 1029 
1029 1029 1029 1029 1029 1029 1029 1029 1029 
1029 1029 1029 1029 1029 1029 1029 1029 1029 
1029 1029 1029 1029 1029 1029 1029 1029 1029 
1029 1029 1029 1029 1029 1029 1029 1029 1029 
1029 1029 1029 1029 1029 1029 1029 1029 1029 
1029 1029 1029 1029 1029 1029 1029 1029 1029 
1029 1029 1029 1029 1029 1029 1029 1029 1029 
1029 1029 1029 1029 1029 1029 1029 1029 1029 
1029 1029 1029 1029 1029 1029 1029 1029 1029 
1029 1029 1029 1029 1029 1029 1029 1029 1029 
1029 1029 1029 1029 1029 1029 1029 1029 1029 
1029 1029 1029 1029 1029 1029 1029 1029 1029 
1029 1029 1029 1029 1029 1029 1029 1029 1029 
1029 1029 1029 1029 1029 1029 1029 1029 1029 
1029 1029 1029 1029 1029 1029 1029 1029 1029 
1029 1029 1029 1029 1029 1029 1029 1029 1029 
1029 1029 1029 1029 1029 1029 1029 1029 1029 
1029 1029 1029 1029 1029 1029 1029 1029 1029 
1029 1029 1029 1029 1029 1029 1029 1029 1029 
1029 1029 1029 1029 1029 1029 1029 1029 1029 
1029 1029 1029 1029 1029 1029 1029 1029 1029 
1029 1029 1029 1029 1029 1029 1029 1029 1029 
1029 1029 1029 1029 1029 1029 1029 1029 1029 
1029 1029 1029 1029 1029 1029 1029 1029 1029 
1029 1029 1029 1029 1029 1029 1029 1029 1029 
1029 1029 1029 1029 1029 1029 1029 1029 1029 
1029 1029 1029 1029 1029 1029 1029 1029 1029 
1029 1029 1029 1029 1029 1029 1029 1029 1029 
1029 1029 1029 1029 1029 1029 1029 1029 1029 
1029 1029 1029 1029 1029 1029 1029 1029 1029 
1029 1029 1029 1029 1029 1029 1029 1029 1029 
1029 1029 1029 1029 1029 1029 1029 1029 1029 
1029 1029 1029 1029 1029 1029 1029 1029 1029 
1029 1029 1029 1029 1029 1029 1029 1029 1029 
1029 1029 1029 1029 1029 1029 1029 1029 1029 
1029 1029 1029 1029 1029 1029 1029 1029 1029 
1029 1029 1029 1029 1029 1029 1029 1029 1029 
1029 1029 1029 1029 1029 1029 1029 1029 1029 
1029 1029 1029 1029 1029 1029 1029 1029 1029 
1029 1029 1029 1029 1029 1029 1029 1029 1029 
1029 1029 1029 1029 1029 1029 1029 1029 1029 
1029 1029 1029 1029 1029 1029 1029 1029 1029 
1029 1029 1029 1029 1029 1029 1029 1029 1029 
1029 1029 1029 1029 1029 1029 1029 1029 1029 
1029 1029 1029 1029 1029 1029 1029 1029 1029 
1029 1029 1029 1029 1029 1029 1029 1029 1029 
1029 1029 1029 1029 1029 1029 1029 1029 1029 
1029 1029 1029 1029 1029 1029 1029 1029 1029 
1029 1029 1029 1029 1029 1029 1029 1029 1029 
1029 1029 1029 1029 1029 1029 1029 1029 1029 
1029 1029 1029 1029 1029 1029 1029 1029 1029 
1029 1029 1029 1029 1029 1029 1029 1029 1029 
1029 1029 1029 1029 1029 1029 1029 1029 1029 
1029 1029 1029 1029 1029 1029 1029 1029 1029 
1029 1029 1029 1029 1029 1029 1029 1029 1029 
1029 1029 1029 1029 1029 1029 1029 1029 1029 
1029 1029 1029 1029 1029 1029 1029 1029 1029 