# vtk DataFile Version 4.0
vtk output
ASCII
DATASET POLYDATA
POINTS 5242 float
0.822876 -1.25559 30.0438 0.818155 -1.61973 30.2275 1.1553 -1.42512 29.9408 
0.299108 -1.25955 29.9138 0.28722 -1.36732 30.2876 -0.212671 -1.48538 30.0772 
0.835574 -1.3637 29.762 0.155993 -1.66283 29.5392 -1.93232 -2.3214 35.0675 
-2.0298 -2.73245 35.2825 -1.72623 -2.48084 35.0342 -2.34456 -2.58315 35.1319 
-1.90012 -2.62366 34.7089 -2.97365 -2.47738 34.2604 -2.79738 -2.59576 33.9667 
-2.99823 -2.39666 33.9973 -3.21575 -2.53298 34.133 -0.238957 -2.26485 33.023 
-0.227072 -2.56749 33.218 0.269694 -2.67703 32.6807 -0.785768 -2.30179 32.7874 
-0.768621 -2.40577 33.2284 -1.13767 -2.46857 33.0129 -3.15205 -2.57011 33.751 
-0.231893 -2.20368 32.0624 0.417788 -2.49285 31.8284 -0.63712 -2.747 32.3686 
-1.05047 -2.53335 32.7329 -1.87559 -2.59168 32.2038 -1.44336 -2.39629 31.8046 
-1.99578 -2.26011 31.6309 -2.38003 -2.59049 32.0338 0.0369123 -1.92154 30.7932 
0.542437 -2.70339 31.1649 -0.871609 -2.41086 31.7677 -1.18649 -2.03285 31.0839 
-2.10404 -2.11876 30.7737 -2.59241 -2.58003 31.056 0.900369 -1.80367 29.7441 
0.661214 -2.48005 30.2291 -0.873504 -1.81632 29.7567 -1.94236 -2.04245 29.9079 
-2.44147 -2.42775 30.0814 0.431274 -2.59309 29.1689 -0.217944 -2.03493 29.0555 
-0.854529 -2.10102 28.8727 -1.71128 -2.14723 29.0103 -2.36995 -2.57918 29.2341 
-0.220203 -2.46601 28.6424 -1.15969 -2.70966 28.3877 -2.04492 -2.72988 28.6145 
-2.09199 -3.70118 35.4199 -1.51585 -3.14961 34.9209 -3.01339 -2.81841 34.7094 
-2.93118 -3.42211 35.4523 -4.28823 -3.11599 34.9176 -4.04352 -3.62249 35.4651 
-5.31377 -3.12188 34.9183 -4.91508 -3.48895 35.4534 -6.08981 -3.19737 34.817 
-5.7678 -3.51089 35.2794 -6.32365 -3.46188 34.9374 -1.30561 -3.21646 33.9443 
-0.961834 -3.80471 34.4447 -0.760818 -3.64735 33.982 -2.2147 -2.84126 33.9102 
-3.71432 -2.85197 33.9406 -4.75509 -3.11618 33.9444 -5.75323 -3.20329 34.1745 
-6.46903 -3.5831 34.3631 -0.124786 -2.86584 32.85 -0.777102 -2.6678 32.9826 
-0.780598 -3.72797 33.467 -1.93415 -3.00774 32.7845 -1.21323 -3.49354 33.093 
-3.07555 -2.87518 33.0944 -4.11221 -3.12987 32.966 -4.695 -3.43027 33.0271 
-5.3471 -3.50137 33.397 -6.12314 -3.57004 33.6777 -7.21007 -3.72527 33.4184 
-6.77174 -3.58606 32.9718 -6.99988 -3.35998 33.0158 -7.39969 -3.6252 33.0822 
-10.0191 -3.29815 32.9896 -9.74596 -3.6777 33.2584 -9.79826 -3.46784 32.8374 
-10.2425 -3.76129 32.9947 -0.00843433 -3.29067 32.5612 0.498985 -3.46809 32.1407 
-1.26439 -2.82969 32.1597 -0.877472 -3.43643 32.5775 -2.90807 -2.85861 31.9395 
-3.67398 -3.1729 31.8663 -4.42933 -3.52099 32.2585 -7.1235 -3.51865 32.7314 
-10.1503 -3.54372 32.5958 0.604796 -3.51893 31.0031 -3.09806 -3.11507 30.9793 
-3.39298 -3.43924 31.07 -3.97286 -3.85555 31.5086 0.45409 -3.67549 29.9137 
-2.64136 -3.33739 30.0631 -2.93197 -3.62277 30.6502 0.412671 -3.67933 28.953 
-2.42513 -3.62308 28.9133 -0.109606 -3.22046 28.4018 -1.10679 -3.13783 27.7437 
-0.440531 -3.59964 27.7892 -1.62169 -3.31986 27.9976 -1.97247 -3.41031 28.2685 
-0.969265 -3.11552 27.048 -0.607345 -3.64243 26.9171 -2.0893 -3.63296 27.5898 
-1.65895 -3.19454 26.8172 -2.44198 -3.63661 27.0254 -1.0426 -3.19798 26.2279 
-0.753959 -3.7173 26.1196 -1.38264 -3.34449 26.0243 -1.83587 -3.73182 26.3342 
-5.08966 -3.29572 25.9774 -4.82611 -3.64836 26.2234 -4.65314 -3.53398 25.8958 
-5.28997 -3.64311 26.0573 -1.00415 -3.42072 25.7763 -5.04117 -3.73414 25.7267 
-1.99221 -4.63739 35.4061 -1.44001 -4.221 35.0518 -2.86088 -4.50477 35.4474 
-4.05393 -4.55806 35.4514 -5.11253 -4.25069 35.4535 -6.16842 -4.05849 34.9435 
-5.66734 -4.90025 35.0495 -0.941301 -4.76708 34.523 -0.5039 -4.26962 33.8797 
-6.22254 -4.67268 34.7388 -6.73338 -4.41684 34.3405 -6.7775 -3.84434 33.7106 
-7.28725 -4.29953 33.8697 -0.181443 -3.99947 32.9662 0.0419789 -4.87528 33.4238 
0.407711 -4.48644 32.767 -0.836381 -3.77969 32.9499 -5.13885 -3.79521 32.6024 
-6.08128 -3.81308 32.9265 -8.06465 -3.93015 32.7395 -7.9015 -4.58589 33.4036 
-9.23958 -3.84282 32.8494 -9.01655 -4.33021 33.3962 -9.86133 -4.53446 33.5807 
-10.412 -4.68924 33.2456 0.582304 -4.50776 31.9905 -4.89737 -3.93916 31.9459 
-5.85982 -4.09492 31.928 -7.01913 -3.86332 32.0975 -8.12374 -3.95226 31.7486 
-9.00592 -3.94048 31.9261 -10.0535 -3.89764 31.9649 -10.639 -4.41988 32.3289 
0.427302 -4.64569 30.8299 -3.11666 -3.92359 31.0085 -2.66027 -4.28878 30.6732 
-3.17719 -4.69476 31.3051 -4.16096 -4.70452 31.5046 -5.12311 -4.49948 31.5709 
-6.07032 -4.48623 31.3484 -6.58372 -4.79746 30.9154 -6.76382 -4.18596 31.1831 
-7.6998 -4.08439 31.0376 -8.70965 -4.09044 31.0227 -9.74505 -4.07885 31.0219 
-10.9333 -4.36323 31.5238 -10.7385 -4.2231 30.9582 -11.3494 -4.75674 31.1389 
0.0910144 -4.36412 30.2247 0.0802339 -4.28954 29.8301 -0.18195 -4.8133 29.7104 
-2.47556 -4.52234 29.9319 -7.30279 -4.58531 30.5955 -8.23122 -4.57693 30.5071 
-9.28142 -4.58083 30.4977 -10.3494 -4.59252 30.4861 -11.1317 -4.71338 30.6199 
-0.0294426 -4.57948 29.5227 0.23886 -4.2919 29.264 -2.48573 -4.72832 29.1124 
0.0528494 -4.18238 28.537 -0.353191 -4.58247 27.9908 -2.03572 -3.76317 27.9633 
-2.48391 -4.44699 28.1028 -0.553363 -4.66286 26.7843 -3.02168 -4.02101 26.6363 
-2.85826 -4.26891 27.3508 -3.46487 -4.83278 26.9683 -0.993099 -4.20446 26.1533 
-1.13567 -3.68814 25.9279 -2.19012 -4.06594 26.0837 -1.42741 -4.45853 25.9192 
-2.80921 -4.12672 25.9663 -4.24391 -4.46626 26.5588 -3.85246 -3.96652 26.0766 
-5.11239 -4.24064 26.323 -5.38219 -4.56451 25.8601 -2.11899 -4.72848 25.6143 
-3.22347 -4.57431 25.5874 -4.25398 -4.19185 25.582 -4.93372 -4.61842 25.3506 
-2.24077 -5.55993 35.3309 -1.47918 -5.257 35.0499 -2.92539 -5.11995 35.0755 
-2.80547 -5.83047 34.7705 -3.66497 -5.08168 35.0451 -4.44129 -5.4043 35.076 
-4.9844 -5.23108 35.2473 -5.44108 -5.4925 34.9957 -0.965298 -5.80337 34.5206 
-0.452541 -5.28977 34.0061 -3.32722 -5.55792 34.5824 -4.20459 -5.81073 34.6745 
-5.985 -5.54913 34.6666 -6.77136 -5.09974 33.7198 -6.35429 -5.8411 34.1228 
-10.1389 -5.10422 33.9236 -10.0551 -5.53772 34.1768 -9.8102 -5.36372 34.0272 
-10.3006 -5.65342 33.7212 0.0451003 -5.81761 33.5167 0.435606 -5.30275 32.875 
-6.07244 -5.34651 33.0082 -5.85315 -5.51439 32.8794 -6.15088 -5.47099 33.3166 
-6.37689 -5.42283 33.0706 -7.12326 -5.41993 33.2432 -7.87194 -5.22306 33.023 
-7.58219 -5.82798 32.9024 -8.35479 -5.38999 33.0661 -9.18253 -5.54287 33.5587 
-10.6742 -5.57512 32.7421 0.552443 -5.51382 32.0063 -5.93431 -5.51892 32.7968 
-8.10015 -5.70528 32.7587 -11.0208 -5.32972 32.1864 -11.1887 -4.89712 31.7657 
-11.3686 -5.6339 31.5707 0.523717 -5.69012 31.1359 -2.55337 -5.26147 30.8516 
-3.05188 -5.81551 31.4172 -3.96564 -5.55504 31.5431 -5.00595 -5.48643 31.5078 
-5.90282 -5.22184 31.306 -6.48538 -5.75215 30.9268 -11.4542 -5.35753 30.8878 
0.0412183 -4.89515 30.1396 0.323908 -5.69008 30.0391 -2.43845 -5.54653 30.0043 
-7.11662 -5.46881 30.5492 -7.96899 -5.4349 30.3905 -8.99168 -5.46672 30.3656 
-10.071 -5.47894 30.3607 -10.9938 -5.47573 30.506 -0.125734 -4.79076 29.0095 
-0.101156 -5.35856 29.5625 -0.316816 -5.54078 28.781 -2.48649 -5.57085 28.9599 
-0.473361 -5.39616 27.8099 -2.59547 -5.7729 27.8545 -0.501175 -5.70279 27.1433 
-2.98062 -5.15656 27.3606 -3.31634 -5.59811 26.8757 -0.835331 -4.87641 26.0706 
-0.686709 -5.61965 26.2829 -4.04973 -5.67641 26.6182 -4.98948 -5.21744 26.3677 
-5.45698 -5.66973 25.9638 -1.26475 -5.38624 25.6685 -2.08976 -5.69312 25.4421 
-2.95754 -5.5006 25.4227 -4.0671 -5.16297 25.2668 -4.90215 -5.21323 24.9495 
-4.60783 -5.81345 24.8615 -5.43551 -5.45783 25.2561 -5.17079 -5.71756 24.7148 
-2.02413 -6.70899 35.3913 -1.48861 -6.31695 35.0541 -3.04167 -6.19271 34.9975 
-2.72486 -6.44183 35.2834 -3.1379 -6.50086 35.0628 -5.03582 -5.80863 34.8781 
-6.16421 -6.19103 34.9304 -6.07535 -6.5727 35.1559 -5.81752 -6.4156 35.0001 
-6.2572 -6.52725 34.7046 -0.975517 -6.8403 34.5197 -0.462355 -6.29914 34.0036 
-3.07514 -6.14913 34.0649 -2.7236 -6.72985 34.0637 -2.93011 -6.53552 34.7399 
-3.75578 -6.45993 34.2097 -3.32891 -6.61211 33.8247 -4.96834 -6.52696 34.5896 
-6.4182 -6.38524 33.9298 -9.88027 -5.80725 34.0157 0.031525 -6.81725 33.5058 
0.406495 -6.28348 32.8838 -3.03879 -6.76165 33.6708 -6.27854 -5.78558 33.2228 
-6.75455 -6.42956 33.3151 -7.32972 -6.57328 32.8126 -9.32688 -6.77295 33.2744 
-8.61326 -6.17812 32.9422 -9.90741 -6.38948 33.6257 -10.4008 -6.56472 33.1366 
0.536198 -6.50221 32.0091 -8.0954 -6.6637 32.5814 -11.0016 -5.97199 32.098 
-10.7327 -6.73406 32.2065 0.532523 -6.52158 30.9695 -2.54421 -6.2776 30.9151 
-3.05871 -6.83095 31.4364 -3.9575 -6.54749 31.5642 -4.83747 -6.34198 31.5282 
-5.77077 -6.33278 31.2977 -6.32824 -6.59872 30.8804 -11.1519 -6.47836 31.6052 
-11.3535 -6.41933 30.9855 0.508835 -6.64522 30.0673 -2.43748 -6.52867 30.0081 
-6.97766 -6.59757 30.554 -7.94089 -6.46163 30.4277 -8.97247 -6.49503 30.3985 
-10.037 -6.52592 30.3916 -10.9304 -6.5486 30.5167 0.024812 -5.94953 29.1357 
0.306163 -6.67502 29.1555 -2.46606 -6.54855 28.9409 -0.0974493 -6.43851 28.6342 
-0.392067 -6.4194 27.9486 -2.46305 -6.65296 28.0482 -0.579117 -6.6827 26.8136 
-2.89108 -5.89827 27.05 -2.62467 -6.65789 27.1145 -0.857846 -6.343 26.1691 
-1.08224 -6.06906 25.8348 -1.18008 -6.64096 25.8213 -3.31988 -6.49455 26.6181 
-4.21195 -6.7432 26.5016 -4.95732 -6.31223 26.3595 -5.49629 -6.54624 25.8389 
-1.81477 -6.58753 25.5348 -2.93269 -6.51039 25.447 -3.84614 -6.21753 25.2657 
-4.52474 -6.77296 24.8873 -5.5026 -6.49862 25.068 -5.09384 -6.50599 24.6563 
-2.26362 -7.32246 35.254 -1.55482 -7.30649 35.0525 -2.8706 -6.94933 35.0905 
-2.44651 -7.45607 34.6849 -5.7592 -6.82429 34.7787 -1.1316 -7.87211 34.5144 
-0.466406 -7.317 33.998 -2.53179 -7.63823 34.0785 -4.06681 -7.37403 34.2424 
-3.36386 -7.18794 33.8411 -5.05082 -7.22414 34.1919 -4.55701 -7.62931 34.1086 
-5.99745 -6.98816 34.0327 0.0262128 -7.81819 33.4942 0.382856 -7.28212 32.8734 
-2.87816 -7.32487 33.7095 -5.31828 -7.60514 33.7322 -6.16916 -7.40042 33.3445 
-6.80518 -7.08682 32.9481 -6.53059 -7.85689 32.8766 -8.88214 -6.98859 32.8379 
-9.39869 -7.53948 33.0033 -9.94307 -7.47388 33.2564 -10.3942 -7.59654 32.8503 
[...]
CELL_DATA 10512
SCALARS scalars float
LOOKUP_TABLE default
1023 1023 1023 1023 1023 1023 1023 1023 1023 
1023 1023 1023 1023 1023 1023 1023 1023 1023 
1023 1023 1023 1023 1023 1023 1023 1023 1023 
1023 1023 1023 1023 1023 1023 1023 1023 1023 
1023 1023 1023 1023 1023 1023 1023 1023 1023 
1023 1023 1023 1023 1023 1023 1023 1023 1023 
1023 1023 1023 1023 1023 1023 1023 1023 1023 
1023 1023 1023 1023 1023 1023 1023 1023 1023 
1023 1023 1023 1023 1023 1023 1023 1023 1023 
1023 1023 1023 1023 1023 1023 1023 1023 1023 
1023 1023 1023 1023 1023 1023 1023 1023 1023 
1023 1023 1023 1023 1023 1023 1023 1023 1023 
1023 1023 1023 1023 1023 1023 1023 1023 1023 
1023 1023 1023 1023 1023 1023 1023 1023 1023 
1023 1023 1023 1023 1023 1023 1023 1023 1023 
1023 1023 1023 1023 1023 1023 1023 1023 1023 
1023 1023 1023 1023 1023 1023 1023 1023 1023 
1023 1023 1023 1023 1023 1023 1023 1023 1023 
1023 1023 1023 1023 1023 1023 1023 1023 1023 
1023 1023 1023 1023 1023 1023 1023 1023 1023 
1023 1023 1023 1023 1023 1023 1023 1023 1023 
1023 1023 1023 1023 1023 1023 1023 1023 1023 
1023 1023 1023 1023 1023 1023 1023 1023 1023 
1023 1023 1023 1023 1023 1023 1023 1023 1023 
1023 1023 1023 1023 1023 1023 1023 1023 1023 
1023 1023 1023 1023 1023 1023 1023 1023 1023 
1023 1023 1023 1023 1023 1023 1023 1023 1023 
1023 1023 1023 1023 1023 1023 1023 1023 1023 
1023 1023 1023 1023 1023 1023 1023 1023 1023 
1023 1023 1023 1023 1023 1023 1023 1023 1023 
1023 1023 1023 1023 1023 1023 1023 1023 1023 
1023 1023 1023 1023 1023 1023 1023 1023 1023 
1023 1023 1023 1023 1023 1023 1023 1023 1023 
1023 1023 1023 1023 1023 1023 1023 1023 1023 
1023 1023 1023 1023 1023 1023 1023 1023 1023 
1023 1023 1023 1023 1023 1023 1023 1023 1023 
1023 1023 1023 1023 1023 1023 1023 1023 1023 
1023 1023 1023 1023 1023 1023 1023 1023 1023 
1023 1023 1023 1023 1023 1023 1023 1023 1023 
1023 1023 1023 1023 1023 1023 1023 1023 1023 
1023 1023 1023 1023 1023 1023 1023 1023 1023 
1023 1023 1023 1023 1023 1023 1023 1023 1023 
1023 1023 1023 1023 1023 1023 1023 1023 1023 
1023 1023 1023 1023 1023 1023 1023 1023 1023 
1023 1023 1023 1023 1023 1023 1023 1023 1023 
1023 1023 1023 1023 1023 1023 1023 1023 1023 
1023 1023 1023 1023 1023 1023 1023 1023 1023 
1023 1023 1023 1023 1023 1023 1023 1023 1023 
1023 1023 1023 1023 1023 1023 1023 1023 1023 
1023 1023 1023 1023 1023 1023 1023 1023 1023 
1023 1023 1023 1023 1023 1023 1023 1023 1023 
1023 1023 1023 1023 1023 1023 1023 1023 1023 
1023 1023 1023 1023 1023 1023 1023 1023 1023 
1023 1023 1023 1023 1023 1023 1023 1023 1023 
1023 1023 1023 1023 1023 1023 1023 1023 1023 
1023 1023 1023 1023 1023 1023 1023 1023 1023 
1023 1023 1023 1023 1023 1023 1023 1023 1023 
1023 1023 1023 1023 1023 1023 1023 1023 1023 
1023 1023 1023 1023 1023 1023 1023 1023 1023 
1023 1023 1023 1023 1023 1023 1023 1023 1023 
1023 1023 1023 1023 1023 1023 1023 1023 1023 
1023 1023 1023 1023 1023 1023 1023 1023 1023 
1023 1023 1023 1023 1023 1023 1023 1023 1023 
1023 1023 1023 1023 1023 1023 1023 1023 1023 
1023 1023 1023 1023 1023 1023 1023 1023 1023 
1023 1023 1023 1023 1023 1023 1023 1023 1023 
1023 1023 1023 1023 1023 1023 1023 1023 1023 
1023 1023 1023 1023 1023 1023 1023 1023 1023 
1023 1023 1023 1023 1023 1023 1023 1023 1023 
1023 1023 1023 1023 1023 1023 1023 1023 1023 
1023 1023 1023 1023 1023 1023 1023 1023 1023 
1023 1023 1023 1023 1023 1023 1023 1023 1023 
1023 1023 1023 1023 1023 1023 1023 1023 1023 
1023 1023 1023 1023 1023 1023 1023 1023 1023 
1023 1023 1023 1023 1023 1023 1023 1023 1023 
1023 1023 1023 1023 1023 1023 1023 1023 1023 
1023 1023 1023 1023 1023 1023 1023 1023 1023 
1023 1023 1023 1023 1023 1023 1023 1023 1023 
1023 1023 1023 1023 1023 1023 1023 1023 1023 
1023 1023 1023 1023 1023 1023 1023 1023 1023 
1023 1023 1023 1023 1023 1023 1023 1023 1023 
1023 1023 1023 1023 1023 1023 1023 1023 1023 
1023 1023 1023 1023 1023 1023 1023 1023 1023 
1023 1023 1023 1023 1023 1023 1023 1023 1023 
1023 1023 1023 1023 1023 1023 1023 1023 1023 
1023 1023 1023 1023 1023 1023 1023 1023 1023 
1023 1023 1023 1023 1023 1023 1023 1023 1023 
1023 1023 1023 1023 1023 1023 1023 1023 1023 
1023 1023 1023 1023 1023 1023 1023 1023 1023 
1023 1023 1023 1023 1023 1023 1023 1023 1023 
1023 1023 1023 1023 1023 1023 1023 1023 1023 
1023 1023 1023 1023 1023 1023 1023 1023 1023 
1023 1023 1023 1023 1023 1023 1023 1023 1023 
1023 1023 1023 1023 1023 1023 1023 1023 1023 
1023 1023 1023 1023 1023 1023 1023 1023 1023 
1023 1023 1023 1023 1023 1023 1023 1023 1023 
1023 1023 1023 1023 1023 1023 1023 1023 1023 
1023 1023 1023 1023 1023 1023 1023 1023 1023 
1023 1023 1023 1023 1023 1023 1023 1023 1023 
1023 1023 1023 1023 1023 1023 1023 1023 1023 
1023 1023 1023 1023 1023 1023 1023 1023 1023 
1023 1023 1023 1023 1023 1023 1023 1023 1023 
1023 1023 1023 1023 1023 1023 1023 1023 1023 
1023 1023 1023 1023 1023 1023 1023 1023 1023 
1023 1023 1023 1023 1023 1023 1023 1023 1023 
1023 1023 1023 1023 1023 1023 1023 1023 1023 
1023 1023 1023 1023 1023 1023 1023 1023 1023 
1023 1023 1023 1023 1023 1023 1023 1023 1023 
1023 1023 1023 1023 1023 1023 1023 1023 1023 
1023 1023 1023 1023 1023 1023 1023 1023 1023 
1023 1023 1023 1023 1023 1023 1023 1023 1023 
1023 1023 1023 1023 1023 1023 1023 1023 1023 
1023 1023 1023 1023 1023 1023 1023 1023 1023 
1023 1023 1023 1023 1023 1023 1023 1023 1023 
1023 1023 1023 1023 1023 1023 1023 1023 1023 
1023 1023 1023 1023 1023 1023 1023 1023 1023 
1023 1023 1023 1023 1023 1023 1023 1023 1023 
1023 1023 1023 1023 1023 1023 1023 1023 1023 
1023 1023 1023 1023 1023 1023 1023 1023 1023 
1023 1023 1023 1023 1023 1023 1023 1023 1023 
1023 1023 1023 1023 1023 1023 1023 1023 1023 
1023 1023 1023 1023 1023 1023 1023 1023 1023 
1023 1023 1023 1023 1023 1023 1023 1023 1023 
1023 1023 1023 1023 1023 1023 1023 1023 1023 
1023 1023 1023 1023 1023 1023 1023 1023 1023 
1023 1023 1023 1023 1023 1023 1023 1023 1023 
1023 1023 1023 1023 1023 1023 1023 1023 1023 
1023 1023 1023 1023 1023 1023 1023 1023 1023 
1023 1023 1023 1023 1023 1023 1023 1023 1023 
1023 1023 1023 1023 1023 1023 1023 1023 1023 
1023 1023 1023 1023 1023 1023 1023 1023 1023 
1023 1023 1023 1023 1023 1023 1023 1023 1023 
1023 1023 1023 1023 1023 1023 1023 1023 1023 
1023 1023 1023 1023 1023 1023 1023 1023 1023 
1023 1023 1023 1023 1023 1023 1023 1023 1023 
1023 1023 1023 1023 1023 1023 1023 1023 1023 
1023 1023 1023 1023 1023 1023 1023 1023 1023 
1023 1023 1023 1023 1023 1023 1023 1023 1023 
1023 1023 1023 1023 1023 1023 1023 1023 1023 
1023 1023 1023 1023 1023 1023 1023 1023 1023 
1023 1023 1023 1023 1023 1023 1023 1023 1023 
1023 1023 1023 1023 1023 1023 1023 1023 1023 
1023 1023 1023 1023 1023 1023 1023 1023 1023 
1023 1023 1023 1023 1023 1023 1023 1023 1023 
1023 1023 1023 1023 1023 1023 1023 1023 1023 
1023 1023 1023 1023 1023 1023 1023 1023 1023 
1023 1023 1023 1023 1023 1023 1023 1023 1023 
1023 1023 1023 1023 1023 1023 1023 1023 1023 
1023 1023 1023 1023 1023 1023 1023 1023 1023 
1023 1023 1023 1023 1023 1023 1023 1023 1023 
1023 1023 1023 1023 1023 1023 1023 1023 1023 
1023 1023 1023 1023 1023 1023 1023 1023 1023 
1023 1023 1023 1023 1023 1023 1023 1023 1023 
1023 1023 1023 1023 1023 1023 1023 1023 1023 
1023 1023 1023 1023 1023 1023 1023 1023 1023 
1023 1023 1023 1023 1023 1023 1023 1023 1023 
1023 1023 1023 1023 1023 1023 1023 1023 1023 
1023 1023 1023 1023 1023 1023 1023 1023 1023 
1023 1023 1023 1023 1023 1023 1023 1023 1023 
1023 1023 1023 1023 1023 1023 1023 1023 1023 
1023 1023 1023 1023 1023 1023 1023 1023 1023 
1023 1023 1023 1023 1023 1023 1023 1023 1023 
1023 1023 1023 1023 1023 1023 1023 1023 1023 
1023 1023 1023 1023 1023 1023 1023 1023 1023 
1023 1023 1023 1023 1023 1023 1023 1023 1023 
1023 1023 1023 1023 1023 1023 1023 1023 1023 
1023 1023 1023 1023 1023 1023 1023 1023 1023 
1023 1023 1023 1023 1023 1023 1023 1023 1023 
1023 1023 1023 1023 1023 1023 1023 1023 1023 
1023 1023 1023 1023 1023 1023 1023 1023 1023 
1023 1023 1023 1023 1023 1023 1023 1023 1023 
1023 1023 1023 1023 1023 1023 1023 1023 1023 
1023 1023 1023 1023 1023 1023 1023 1023 1023 
1023 1023 1023 1023 1023 1023 1023 1023 1023 
1023 1023 1023 1023 1023 1023 1023 1023 1023 
1023 1023 1023 1023 1023 1023 1023 1023 1023 
1023 1023 1023 1023 1023 1023 1023 1023 1023 
1023 1023 1023 1023 1023 1023 1023 1023 1023 
1023 1023 1023 1023 1023 1023 1023 1023 1023 
1023 1023 1023 1023 1023 1023 1023 1023 1023 
1023 1023 1023 1023 1023 1023 1023 1023 1023 
1023 1023 1023 1023 1023 1023 1023 1023 1023 
1023 1023 1023 1023 1023 1023 1023 1023 1023 
1023 1023 1023 1023 1023 1023 1023 1023 1023 
1023 1023 1023 1023 1023 1023 1023 1023 1023 
1023 1023 1023 1023 1023 1023 1023 1023 1023 
1023 1023 1023 1023 1023 1023 1023 1023 1023 
1023 1023 1023 1023 1023 1023 1023 1023 1023 
1023 1023 1023 1023 1023 1023 1023 1023 1023 
1023 1023 1023 1023 1023 1023 1023 1023 1023 
1023 1023 1023 1023 1023 1023 1023 1023 1023 
1023 1023 1023 1023 1023 1023 1023 1023 1023 
1023 1023 1023 1023 1023 1023 1023 1023 1023 
1023 1023 1023 1023 1023 1023 1023 1023 1023 
1023 1023 1023 1023 1023 1023 1023 1023 1023 
1023 1023 1023 1023 1023 1023 1023 1023 1023 
1023 1023 1023 1023 1023 1023 1023 1023 1023 
1023 1023 1023 1023 1023 1023 1023 1023 1023 
1023 1023 1023 1023 1023 1023 1023 1023 1023 
1023 1023 1023 1023 1023 1023 1023 1023 1023 
1023 1023 1023 1023 1023 1023 1023 1023 1023 
1023 1023 1023 1023 1023 1023 1023 1023 1023 
1023 1023 1023 1023 1023 1023 1023 1023 1023 
1023 1023 1023 1023 1023 1023 1023 1023 1023 
1023 1023 1023 1023 1023 1023 1023 1023 1023 
1023 1023 1023 1023 1023 1023 1023 1023 1023 
1023 1023 1023 1023 1023 1023 1023 1023 1023 
1023 1023 1023 1023 1023 1023 1023 1023 1023 
1023 1023 1023 1023 1023 1023 1023 1023 1023 
1023 1023 1023 1023 1023 1023 1023 1023 1023 
1023 1023 1023 1023 1023 1023 1023 1023 1023 
1023 1023 1023 1023 1023 1023 1023 1023 1023 
1023 1023 1023 1023 1023 1023 1023 1023 1023 
1023 1023 1023 1023 1023 1023 1023 1023 1023 
1023 1023 1023 1023 1023 1023 1023 1023 1023 
1023 1023 1023 1023 1023 1023 1023 1023 1023 
1023 1023 1023 1023 1023 1023 1023 1023 1023 
1023 1023 1023 1023 1023 1023 1023 1023 1023 
1023 1023 1023 1023 1023 1023 1023 1023 1023 
1023 1023 1023 1023 1023 1023 1023 1023 1023 
1023 1023 1023 1023 1023 1023 1023 1023 1023 
1023 1023 1023 1023 1023 1023 1023 1023 1023 
1023 1023 1023 1023 1023 1023 1023 1023 1023 
1023 1023 1023 1023 1023 1023 1023 1023 1023 
1023 1023 1023 1023 1023 1023 1023 1023 1023 
1023 1023 1023 1023 1023 1023 1023 1023 1023 
1023 1023 1023 1023 1023 1023 1023 1023 1023 
1023 1023 1023 1023 1023 1023 1023 1023 1023 
1023 1023 1023 1023 1023 1023 1023 1023 1023 
1023 1023 1023 1023 1023 1023 1023 1023 1023 
1023 1023 1023 1023 1023 1023 1023 1023 1023 
1023 1023 1023 1023 1023 1023 1023 1023 1023 
1023 1023 1023 1023 1023 1023 1023 1023 1023 
1023 1023 1023 1023 1023 1023 1023 1023 1023 
1023 1023 1023 1023 1023 1023 1023 1023 1023 
1023 1023 1023 1023 1023 1023 1023 1023 1023 
1023 1023 1023 1023 1023 1023 1023 1023 1023 
1023 1023 1023 1023 1023 1023 1023 1023 1023 
1023 1023 1023 1023 1023 1023 1023 1023 1023 
1023 1023 1023 1023 1023 1023 1023 1023 1023 
1023 1023 1023 1023 1023 1023 1023 1023 1023 
1023 1023 1023 1023 1023 1023 1023 1023 1023 
1023 1023 1023 1023 1023 1023 1023 1023 1023 
1023 1023 1023 1023 1023 1023 1023 1023 1023 
1023 1023 1023 1023 1023 1023 1023 1023 1023 
1023 1023 1023 1023 1023 1023 1023 1023 1023 
1023 1023 1023 1023 1023 1023 1023 1023 1023 
1023 1023 1023 1023 1023 1023 1023 1023 1023 
1023 1023 1023 1023 1023 1023 1023 1023 1023 
1023 1023 1023 1023 1023 1023 1023 1023 1023 
1023 1023 1023 1023 1023 1023 1023 1023 1023 
1023 1023 1023 1023 1023 1023 1023 1023 1023 
1023 1023 1023 1023 1023 1023 1023 1023 1023 
1023 1023 1023 1023 1023 1023 1023 1023 1023 
1023 1023 1023 1023 1023 1023 1023 1023 1023 
1023 1023 1023 1023 1023 1023 1023 1023 1023 
1023 1023 1023 1023 1023 1023 1023 1023 1023 
1023 1023 1023 1023 1023 1023 1023 1023 1023 
1023 1023 1023 1023 1023 1023 1023 1023 1023 
1023 1023 1023 1023 1023 1023 1023 1023 1023 
1023 1023 1023 1023 1023 1023 1023 1023 1023 
1023 1023 1023 1023 1023 1023 1023 1023 1023 
1023 1023 1023 1023 1023 1023 1023 1023 1023 
1023 1023 1023 1023 1023 1023 1023 1023 1023 
1023 1023 1023 1023 1023 1023 1023 1023 1023 
1023 1023 1023 1023 1023 1023 1023 1023 1023 
1023 1023 1023 1023 1023 1023 1023 1023 1023 
1023 1023 1023 1023 1023 1023 1023 1023 1023 
1023 1023 1023 1023 1023 1023 1023 1023 1023 
1023 1023 1023 1023 1023 1023 1023 1023 1023 
1023 1023 1023 1023 1023 1023 1023 1023 1023 
1023 1023 1023 1023 1023 1023 1023 1023 1023 
1023 1023 1023 1023 1023 1023 1023 1023 1023 
1023 1023 1023 1023 1023 1023 1023 1023 1023 
1023 1023 1023 1023 1023 1023 1023 1023 1023 
1023 1023 1023 1023 1023 1023 1023 1023 1023 
1023 1023 1023 1023 1023 1023 1023 1023 1023 
1023 1023 1023 1023 1023 1023 1023 1023 1023 
1023 1023 1023 1023 1023 1023 1023 1023 1023 
1023 1023 1023 1023 1023 1023 1023 1023 1023 
1023 1023 1023 1023 1023 1023 1023 1023 1023 
1023 1023 1023 1023 1023 1023 1023 1023 1023 
1023 1023 1023 1023 1023 1023 1023 1023 1023 
1023 1023 1023 1023 1023 1023 1023 1023 1023 
1023 1023 1023 1023 1023 1023 1023 1023 1023 
1023 1023 1023 1023 1023 1023 1023 1023 1023 
1023 1023 1023 1023 1023 1023 1023 1023 1023 
1023 1023 1023 1023 1023 1023 1023 1023 1023 
1023 1023 1023 1023 1023 1023 1023 1023 1023 
1023 1023 1023 1023 1023 1023 1023 1023 1023 
1023 1023 1023 1023 1023 1023 1023 1023 1023 
1023 1023 1023 1023 1023 1023 1023 1023 1023 
1023 1023 1023 1023 1023 1023 1023 1023 1023 
1023 1023 1023 1023 1023 1023 1023 1023 1023 
1023 1023 1023 1023 1023 1023 1023 1023 1023 
1023 1023 1023 1023 1023 1023 1023 1023 1023 
1023 1023 1023 1023 1023 1023 1023 1023 1023 
1023 1023 1023 1023 1023 1023 1023 1023 1023 
1023 1023 1023 1023 1023 1023 1023 1023 1023 
1023 1023 1023 1023 1023 1023 1023 1023 1023 
1023 1023 1023 1023 1023 1023 1023 1023 1023 
1023 1023 1023 1023 1023 1023 1023 1023 1023 
1023 1023 1023 1023 1023 1023 1023 1023 1023 
1023 1023 1023 1023 1023 1023 1023 1023 1023 
1023 1023 1023 1023 1023 1023 1023 1023 1023 
1023 1023 1023 1023 1023 1023 1023 1023 1023 
1023 1023 1023 1023 1023 1023 1023 1023 1023 
1023 1023 1023 1023 1023 1023 1023 1023 1023 
1023 1023 1023 1023 1023 1023 1023 1023 1023 
1023 1023 1023 1023 1023 1023 1023 1023 1023 
1023 1023 1023 1023 1023 1023 1023 1023 1023 
1023 1023 1023 1023 1023 1023 1023 1023 1023 
1023 1023 1023 1023 1023 1023 1023 1023 1023 
1023 1023 1023 1023 1023 1023 1023 1023 1023 
1023 1023 1023 1023 1023 1023 1023 1023 1023 
1023 1023 1023 1023 1023 1023 1023 1023 1023 
1023 1023 1023 1023 1023 1023 1023 1023 1023 
1023 1023 1023 1023 1023 1023 1023 1023 1023 
1023 1023 1023 1023 1023 1023 1023 1023 1023 
1023 1023 1023 1023 1023 1023 1023 1023 1023 
1023 1023 1023 1023 1023 1023 1023 1023 1023 
1023 1023 1023 1023 1023 1023 1023 1023 1023 
1023 1023 1023 1023 1023 1023 1023 1023 1023 
1023 1023 1023 1023 1023 1023 1023 1023 1023 
1023 1023 1023 1023 1023 1023 1023 1023 1023 
1023 1023 1023 1023 1023 1023 1023 1023 1023 
1023 1023 1023 1023 1023 1023 1023 1023 1023 
1023 1023 1023 1023 1023 1023 1023 1023 1023 
1023 1023 1023 1023 1023 1023 1023 1023 1023 
1023 1023 1023 1023 1023 1023 1023 1023 1023 
1023 1023 1023 1023 1023 1023 1023 1023 1023 
1023 1023 1023 1023 1023 1023 1023 1023 1023 
1023 1023 1023 1023 1023 1023 1023 1023 1023 
1023 1023 1023 1023 1023 1023 1023 1023 1023 
1023 1023 1023 1023 1023 1023 1023 1023 1023 
1023 1023 1023 1023 1023 1023 1023 1023 1023 
1023 1023 1023 1023 1023 1023 1023 1023 1023 
1023 1023 1023 1023 1023 1023 1023 1023 1023 
1023 1023 1023 1023 1023 1023 1023 1023 1023 
1023 1023 1023 1023 1023 1023 1023 1023 1023 
1023 1023 1023 1023 1023 1023 1023 1023 1023 
1023 1023 1023 1023 1023 1023 1023 1023 1023 
1023 1023 1023 1023 1023 1023 1023 1023 1023 
1023 1023 1023 1023 1023 1023 1023 1023 1023 
1023 1023 1023 1023 1023 1023 1023 1023 1023 
1023 1023 1023 1023 1023 1023 1023 1023 1023 
1023 1023 1023 1023 1023 1023 1023 1023 1023 
1023 1023 1023 1023 1023 1023 1023 1023 1023 
1023 1023 1023 1023 1023 1023 1023 1023 1023 
1023 1023 1023 1023 1023 1023 1023 1023 1023 
1023 1023 1023 1023 1023 1023 1023 1023 1023 
1023 1023 1023 1023 1023 1023 1023 1023 1023 
1023 1023 1023 1023 1023 1023 1023 1023 1023 
1023 1023 1023 1023 1023 1023 1023 1023 1023 
1023 1023 1023 1023 1023 1023 1023 1023 1023 
1023 1023 1023 1023 1023 1023 1023 1023 1023 
1023 1023 1023 1023 1023 1023 1023 1023 1023 
1023 1023 1023 1023 1023 1023 1023 1023 1023 
1023 1023 1023 1023 1023 1023 1023 1023 1023 
1023 1023 1023 1023 1023 1023 1023 1023 1023 
1023 1023 1023 1023 1023 1023 1023 1023 1023 
1023 1023 1023 1023 1023 1023 1023 1023 1023 
1023 1023 1023 1023 1023 1023 1023 1023 1023 
1023 1023 1023 1023 1023 1023 1023 1023 1023 
1023 1023 1023 1023 1023 1023 1023 1023 1023 
1023 1023 1023 1023 1023 1023 1023 1023 1023 
1023 1023 1023 1023 1023 1023 1023 1023 1023 
1023 1023 1023 1023 1023 1023 1023 1023 1023 
1023 1023 1023 1023 1023 1023 1023 1023 1023 
1023 1023 1023 1023 1023 1023 1023 1023 1023 
1023 1023 1023 1023 1023 1023 1023 1023 1023 
1023 1023 1023 1023 1023 1023 1023 1023 1023 
1023 1023 1023 1023 1023 1023 1023 1023 1023 
1023 1023 1023 1023 1023 1023 1023 1023 1023 
1023 1023 1023 1023 1023 1023 1023 1023 1023 
1023 1023 1023 1023 1023 1023 1023 1023 1023 
1023 1023 1023 1023 1023 1023 1023 1023 1023 
1023 1023 1023 1023 1023 1023 1023 1023 1023 
1023 1023 1023 1023 1023 1023 1023 1023 1023 
1023 1023 1023 1023 1023 1023 1023 1023 1023 
1023 1023 1023 1023 1023 1023 1023 1023 1023 
1023 1023 1023 1023 1023 1023 1023 1023 1023 
1023 1023 1023 1023 1023 1023 1023 1023 1023 
1023 1023 1023 1023 1023 1023 1023 1023 1023 
1023 1023 1023 1023 1023 1023 1023 1023 1023 
1023 1023 1023 1023 1023 1023 1023 1023 1023 
1023 1023 1023 1023 1023 1023 1023 1023 1023 
1023 1023 1023 1023 1023 1023 1023 1023 1023 
1023 1023 1023 1023 1023 1023 1023 1023 1023 
1023 1023 1023 1023 1023 1023 1023 1023 1023 
1023 1023 1023 1023 1023 1023 1023 1023 1023 
1023 1023 1023 1023 1023 1023 1023 1023 1023 
1023 1023 1023 1023 1023 1023 1023 1023 1023 
1023 1023 1023 1023 1023 1023 1023 1023 1023 
1023 1023 1023 1023 1023 1023 1023 1023 1023 
1023 1023 1023 1023 1023 1023 1023 1023 1023 
1023 1023 1023 1023 1023 1023 1023 1023 1023 
1023 1023 1023 1023 1023 1023 1023 1023 1023 
1023 1023 1023 1023 1023 1023 1023 1023 1023 
1023 1023 1023 1023 1023 1023 1023 1023 1023 
1023 1023 1023 1023 1023 1023 1023 1023 1023 
1023 1023 1023 1023 1023 1023 1023 1023 1023 
1023 1023 1023 1023 1023 1023 1023 1023 1023 
1023 1023 1023 1023 1023 1023 1023 1023 1023 
1023 1023 1023 1023 1023 1023 1023 1023 1023 
1023 1023 1023 1023 1023 1023 1023 1023 1023 
1023 1023 1023 1023 1023 1023 1023 1023 1023 
1023 1023 1023 1023 1023 1023 1023 1023 1023 
1023 1023 1023 1023 1023 1023 1023 1023 1023 
1023 1023 1023 1023 1023 1023 1023 1023 1023 
1023 1023 1023 1023 1023 1023 1023 1023 1023 
1023 1023 1023 1023 1023 1023 1023 1023 1023 
1023 1023 1023 1023 1023 1023 1023 1023 1023 
1023 1023 1023 1023 1023 1023 1023 1023 1023 
1023 1023 1023 1023 1023 1023 1023 1023 1023 
1023 1023 1023 1023 1023 1023 1023 1023 1023 
1023 1023 1023 1023 1023 1023 1023 1023 1023 
1023 1023 1023 1023 1023 1023 1023 1023 1023 
1023 1023 1023 1023 1023 1023 1023 1023 1023 
1023 1023 1023 1023 1023 1023 1023 1023 1023 
1023 1023 1023 1023 1023 1023 1023 1023 1023 
1023 1023 1023 1023 1023 1023 1023 1023 1023 
1023 1023 1023 1023 1023 1023 1023 1023 1023 
1023 1023 1023 1023 1023 1023 1023 1023 1023 
1023 1023 1023 1023 1023 1023 1023 1023 1023 
1023 1023 1023 1023 1023 1023 1023 1023 1023 
1023 1023 1023 1023 1023 1023 1023 1023 1023 
1023 1023 1023 1023 1023 1023 1023 1023 1023 
1023 1023 1023 1023 1023 1023 1023 1023 1023 
1023 1023 1023 1023 1023 1023 1023 1023 1023 
1023 1023 1023 1023 1023 1023 1023 1023 1023 
1023 1023 1023 1023 1023 1023 1023 1023 1023 
1023 1023 1023 1023 1023 1023 1023 1023 1023 