# vtk DataFile Version 4.0
vtk output
ASCII
DATASET POLYDATA
POINTS 5678 float
-2.24551 -22.2348 54.0585 -1.92654 -22.7794 54.3381 -1.72827 -22.497 53.8249 
-2.76274 -22.2318 53.905 -2.75415 -22.4603 54.254 -3.17936 -22.7151 53.9104 
-2.34076 -22.3951 53.5552 -2.90904 -22.4333 53.5749 -4.00599 -22.7163 53.1974 
-3.76804 -22.5169 52.7981 -4.04342 -22.3433 52.9554 -4.43719 -22.5857 53.0352 
-4.19029 -22.4837 52.6962 -8.97884 -22.351 34.974 -8.97597 -22.4539 35.2362 
-8.80406 -22.5855 34.9289 -9.22542 -22.5093 35.119 -11.2481 -22.2942 35.0171 
-10.9028 -22.5349 35.2777 -10.6352 -22.6513 34.7219 -12.0198 -22.2109 34.9393 
-11.7131 -22.4365 35.4783 -12.828 -22.297 34.8226 -12.6736 -22.4317 35.393 
-13.435 -22.6569 35.0243 -15.1496 -22.1722 34.6759 -15.0179 -22.5606 35.2338 
-14.3573 -22.734 34.8418 -15.4901 -22.7744 35.0518 -9.13583 -22.532 34.7106 
-11.3533 -22.5807 34.6349 -12.3137 -22.6015 34.5521 -13.1601 -22.716 34.5612 
-13.9071 -22.4819 34.3118 -13.7804 -22.4299 34.0052 -14.2783 -22.1762 34.0958 
-15.1814 -21.8826 33.7798 -15.907 -22.4436 34.5266 -15.9374 -22.0922 33.8892 
-16.3523 -22.6789 33.9934 -14.0703 -22.3803 33.5885 -14.5021 -22.7904 33.1095 
-14.9035 -22.0738 33.0352 -15.8923 -21.999 32.8969 -16.4692 -22.5833 33.1794 
-15.1306 -22.426 32.3633 -15.6162 -22.7576 31.8224 -15.7629 -22.1563 32.0854 
-16.3901 -22.5315 32.1928 -16.1484 -22.6456 31.6463 -1.19941 -22.9505 53.8426 
-0.92136 -23.4985 54.4603 -0.689934 -23.4813 53.759 -1.81441 -23.455 54.7179 
-3.00579 -23.4924 54.5541 -3.66551 -23.52 53.9616 -1.06104 -23.1831 53.0643 
-0.62134 -23.822 52.9106 -1.86282 -22.8292 53.0353 -3.18546 -22.834 53.1165 
-3.98663 -23.3384 53.5884 -4.8525 -22.9881 52.6582 -4.72841 -23.3141 53.4641 
-5.3921 -23.7627 53.2105 -1.0876 -23.4306 52.4096 -1.51833 -23.5539 51.8057 
-1.69492 -23.2061 52.2228 -2.6602 -23.1295 52.1003 -3.86933 -22.9432 52.1851 
-4.79646 -23.1955 51.9295 -5.41903 -23.712 52.1648 -2.27132 -23.542 51.5044 
-3.27191 -23.5102 51.4359 -4.29947 -23.4779 51.4256 -5.0534 -23.6273 51.4403 
-11.1835 -23.1604 36.8304 -10.9386 -23.8404 37.3759 -10.3755 -23.4083 36.9024 
-12.3104 -23.1006 36.9284 -11.9967 -23.614 37.44 -13.2474 -23.1774 36.7808 
-12.7868 -23.4766 37.3389 -13.4757 -23.7936 37.0564 -9.1248 -22.9546 35.6729 
-8.81864 -23.7815 36.2907 -8.43811 -23.4125 35.84 -10.1868 -23.0908 36.2102 
-9.64782 -23.6453 36.5846 -10.9978 -22.8182 35.8894 -12.0206 -22.8 36.1555 
-13.1389 -22.8399 35.973 -13.8971 -23.4922 36.5339 -14.0425 -23.0831 35.919 
-14.4734 -23.7737 36.0173 -4.24919 -23.095 34.8703 -3.95557 -23.5859 35.5218 
-3.62936 -23.5461 34.9117 -5.22578 -23.0532 34.8374 -4.83969 -23.5649 35.5092 
-6.29335 -23.0806 34.8178 -5.95506 -23.5949 35.3726 -7.28683 -23.1109 34.8314 
-6.82444 -23.525 35.331 -8.2567 -23.0239 35.0087 -7.66792 -23.6684 35.571 
-9.90953 -22.7741 35.0423 -13.901 -22.8978 35.2498 -14.9137 -23.208 35.4786 
-15.5611 -23.7615 35.0502 -3.9304 -23.0417 34.1226 -3.55524 -23.5728 33.9125 
-4.66023 -22.9986 33.8852 -5.85086 -23.0276 33.9388 -6.98215 -22.9426 33.9208 
-7.86384 -22.9542 34.0611 -8.84154 -22.966 33.9877 -9.96059 -23.146 34.0543 
-10.8477 -23.1807 34.4152 -10.3945 -23.5374 34.1012 -11.9117 -23.4379 34.5567 
-12.903 -23.2852 34.4298 -14.0179 -22.7183 33.9696 -13.7996 -23.2865 34.5051 
-14.3012 -23.5335 33.7715 -16.0793 -23.2334 34.5302 -16.4825 -23.4958 33.8339 
-3.9926 -23.2017 33.2249 -3.63252 -23.8472 33.0052 -4.44199 -23.4169 33.0199 
-5.17767 -23.6634 33.3912 -6.15926 -23.5986 33.3599 -6.72494 -23.635 32.9524 
-6.75871 -23.1499 33.1595 -7.7803 -23.1348 33.0887 -8.39654 -23.4283 32.9711 
-8.96503 -23.6944 33.3454 -9.75645 -23.7747 33.6727 -14.6436 -23.6768 32.9393 
-16.6148 -23.4869 32.9208 -4.01281 -23.6896 32.6522 -7.20397 -23.4301 32.6752 
-7.769 -23.5683 32.6401 -15.0194 -23.2194 32.3828 -15.4923 -23.7459 31.8725 
-16.4778 -23.4372 32.0134 -16.0474 -23.4837 31.616 -0.272505 -24.1639 55.8632 
-0.0346356 -24.8031 56.297 0.324701 -24.4878 55.7508 -1.19461 -24.1579 55.7736 
-0.878305 -24.6232 56.3051 -1.59491 -24.6261 56.0858 -0.0889582 -24.1256 55.0121 
0.398577 -24.8275 54.9192 -0.963463 -23.821 55.1778 -1.96836 -24.4143 55.6623 
-2.12255 -23.9703 55.1563 -2.96436 -24.1179 55.0058 -2.73022 -24.5987 55.2609 
-3.42255 -24.4536 54.7877 0.0834103 -24.4848 54.4766 -0.281926 -24.2256 53.8796 
-4.4431 -23.9661 54.05 -4.08017 -24.3852 54.3756 -5.11625 -24.0687 53.9137 
-4.87978 -24.5187 54.2326 -5.37531 -24.6916 53.7131 -0.288511 -24.5043 52.8179 
-5.63159 -24.3904 52.901 -1.02125 -23.8614 51.9181 -0.470286 -24.5729 51.8248 
-5.77931 -24.7053 52.1916 -1.09886 -24.2151 51.0856 -0.672877 -24.793 50.7943 
-1.90772 -23.8918 51.0383 -3.03068 -23.8776 50.8094 -4.05945 -23.8685 50.7744 
-4.92503 -23.9646 50.7759 -5.59658 -24.4522 51.0932 -1.12051 -24.4496 50.4411 
-1.40287 -24.5159 49.6879 -1.91159 -24.1191 50.0583 -2.99905 -23.9848 49.9698 
-4.03214 -23.9996 49.9128 -4.89073 -24.1276 49.8977 -5.40377 -24.4774 50.1028 
-2.12512 -24.2045 49.0363 -1.63817 -24.5969 48.929 -3.01578 -23.9811 48.9769 
-3.88651 -23.9701 49.0773 -4.68785 -24.1793 48.845 -5.32741 -24.649 49.2716 
-2.13197 -24.4189 48.3986 -2.42195 -24.4939 47.6373 -2.9787 -24.0861 47.9915 
-4.03562 -24.0747 48.0356 -4.59128 -24.5109 47.9851 -4.9759 -24.8442 48.4942 
-3.17821 -24.1835 47.0018 -2.68119 -24.5802 46.8832 -4.08902 -24.0742 46.8864 
-4.59501 -24.6419 47.267 -3.17931 -24.4046 46.3681 -3.42601 -24.48 45.588 
-3.83277 -24.1065 46.106 -4.87505 -24.4244 46.4928 -4.68003 -24.1919 45.8026 
-5.23085 -24.8136 46.0524 -4.06775 -24.2581 45.2169 -3.65438 -24.6023 44.8102 
-4.62273 -24.3882 45.0699 -5.02363 -24.4834 45.3991 -5.84962 -24.633 45.1365 
-5.7614 -24.5481 44.7902 -6.02166 -24.3951 44.9558 -6.22484 -24.8555 44.9213 
-4.18772 -24.577 44.6627 -6.09596 -24.6674 44.5632 -6.30144 -24.2488 42.8736 
-6.03096 -24.7023 43.3223 -5.73739 -24.5767 42.7967 -6.98981 -24.184 42.7627 
-6.76092 -24.4713 43.2196 -7.47977 -24.6238 43.0787 -6.13565 -24.3858 42.3677 
-6.55328 -24.5227 41.7941 -6.7627 -24.2046 42.2404 -7.49889 -24.4141 42.2948 
-7.17986 -24.5091 41.6906 -10.1108 -23.8859 37.0962 -10.2175 -24.6644 37.3387 
-9.66375 -24.3619 36.9429 -11.1587 -24.6957 37.5554 -12.0037 -24.4921 37.5683 
-12.8903 -24.2287 37.4402 -13.5582 -24.772 37.012 -4.27066 -24.0348 35.9971 
-4.0755 -24.4622 36.3716 -3.54477 -24.3475 35.7993 -5.01546 -24.1562 35.9104 
-4.87163 -24.7067 36.4566 -5.55219 -24.6926 36.0145 -8.17135 -23.9573 36.0727 
-8.10127 -24.7691 36.3212 -7.59384 -24.3819 35.9353 -9.10618 -24.5225 36.6292 
-14.0553 -24.26 36.5285 -14.5604 -24.7606 35.9916 -3.28902 -24.4963 34.6497 
-5.75495 -24.2434 35.6878 -6.79167 -24.2916 35.6707 -11.1005 -23.9719 34.7828 
-10.5366 -24.4945 34.8521 -11.1573 -24.8131 35.3455 -11.8169 -24.5492 35.3002 
-12.1249 -24.1797 34.919 -12.5003 -24.8444 35.0381 -15.0462 -24.2525 35.5146 
-15.561 -24.7992 35.0096 -3.4216 -24.341 33.7329 -10.1991 -24.0552 34.2031 
-9.68644 -24.404 33.8383 -10.014 -24.8036 34.39 -13.068 -24.2341 34.4671 
-13.9314 -24.0952 34.0344 -13.6701 -24.8544 33.9705 -16.081 -24.2772 34.5084 
-16.4531 -24.5392 33.8268 -3.64758 -24.7132 33.1577 -4.38164 -24.1354 32.8344 
-4.93729 -24.8075 33.2902 -6.00857 -24.5277 33.4402 -6.9612 -24.45 33.2754 
-7.33823 -23.9375 32.839 -8.13481 -24.5441 33.2507 -8.10096 -23.8641 32.8854 
-9.14644 -24.5202 33.5111 -14.1467 -24.4803 33.619 -14.5161 -24.6825 32.8917 
-16.5821 -24.5302 32.924 -3.85116 -24.2785 32.6569 -15.0051 -24.1886 32.3513 
-15.3609 -24.4339 31.9101 -16.4664 -24.6298 31.8803 -15.7174 -24.5144 31.59 
0.0844618 -25.33 58.0098 0.131176 -25.6863 58.1939 0.261041 -25.6636 57.7721 
-0.239181 -25.7777 57.9474 0.0315606 -25.4349 57.7319 0.0744824 -25.554 56.6014 
0.474993 -25.391 55.9793 -0.702055 -25.3606 56.6499 -2.23561 -24.9905 55.8556 
-1.71164 -25.3347 56.484 -2.38409 -25.7723 56.2035 0.558936 -25.68 55.115 
-2.64201 -25.4554 55.1213 -3.16234 -24.9282 54.7571 0.135781 -24.8163 54.041 
0.416661 -25.5078 54.0477 -3.01187 -25.2439 54.2385 -2.64556 -25.8279 53.9142 
-3.75141 -25.0407 54.1883 -4.71331 -25.0396 54.0527 0.0437726 -24.961 53.2147 
0.372061 -25.6359 52.9163 -3.31006 -25.5242 53.5336 -4.29715 -25.5651 53.5151 
-5.09063 -25.4502 53.5306 -5.6254 -25.3299 52.9158 0.00897255 -25.0767 52.2607 
0.339738 -25.8397 51.8541 -6.05526 -25.4211 52.2439 -6.11369 -25.1219 51.5954 
-6.26627 -25.6458 51.7288 -0.0475406 -25.3325 51.5044 -0.272315 -25.375 50.8669 
-6.04265 -25.1781 50.8453 -6.27214 -25.493 51.1477 -0.899525 -24.8577 50.0777 
-0.473322 -25.4206 49.8716 -5.79374 -25.4879 50.1925 -6.10513 -25.5436 50.6727 
-1.07167 -25.0235 49.1079 -0.480717 -25.5313 48.7073 -5.52014 -25.4197 49.1118 
-1.10062 -25.1722 47.9919 -0.490887 -25.5433 47.6995 -1.71344 -24.8153 48.2015 
-4.7438 -25.209 47.8993 -5.14103 -25.5314 48.4777 -1.14245 -25.2539 47.0409 
-0.649062 -25.5841 46.903 -1.96368 -24.9234 47.1189 -4.89939 -25.3814 47.3944 
-5.05452 -24.98 46.813 -5.32832 -25.5258 46.9395 -1.15086 -25.4474 46.3874 
-1.4178 -25.5023 45.6199 -1.93477 -25.1427 46.0439 -2.7276 -24.7985 46.1577 
-5.63096 -25.4943 46.0774 -2.13768 -25.1542 44.9262 -1.52512 -25.4963 44.694 
-2.96822 -24.8976 45.0394 -5.15213 -24.8525 44.9398 -5.93793 -25.2656 45.3985 
-6.41861 -25.5612 45.048 -2.13821 -25.1887 44.0204 -1.62252 -25.4808 44.0721 
-2.98909 -25.0019 43.9535 -4.03203 -24.9204 44.0639 -4.95253 -25.032 43.9315 
-5.79789 -24.9538 44.0076 -6.56692 -25.3566 44.3397 -7.98911 -25.2533 43.6486 
-7.95096 -25.6636 44.2374 -7.59668 -25.5175 43.9501 -8.4269 -25.8428 44.1618 
-1.8791 -25.5915 43.482 -2.40839 -25.4818 42.6539 -2.90284 -25.1053 43.0059 
-3.96781 -25.0012 42.9274 -5.10347 -24.9377 43.0744 -6.96903 -25.1483 43.6784 
-8.12713 -24.957 42.7171 -8.53718 -25.6597 43.2454 -2.98597 -25.233 42.2013 
-2.67458 -25.5691 41.9098 -3.87351 -25.1341 41.9614 -4.96814 -25.0113 41.9505 
-5.86169 -24.7984 41.9879 -7.92381 -24.9506 41.6729 -8.53284 -25.6193 42.1962 
-3.33282 -25.5109 41.5314 -4.1038 -25.4763 41.2777 -4.63061 -25.6372 40.8019 
[...]
CELL_DATA 11352
SCALARS scalars float
LOOKUP_TABLE default
1017 1017 1017 1017 1017 1017 1017 1017 1017 
1017 1017 1017 1017 1017 1017 1017 1017 1017 
1017 1017 1017 1017 1017 1017 1017 1017 1017 
1017 1017 1017 1017 1017 1017 1017 1017 1017 
1017 1017 1017 1017 1017 1017 1017 1017 1017 
1017 1017 1017 1017 1017 1017 1017 1017 1017 
1017 1017 1017 1017 1017 1017 1017 1017 1017 
1017 1017 1017 1017 1017 1017 1017 1017 1017 
1017 1017 1017 1017 1017 1017 1017 1017 1017 
1017 1017 1017 1017 1017 1017 1017 1017 1017 
1017 1017 1017 1017 1017 1017 1017 1017 1017 
1017 1017 1017 1017 1017 1017 1017 1017 1017 
1017 1017 1017 1017 1017 1017 1017 1017 1017 
1017 1017 1017 1017 1017 1017 1017 1017 1017 
1017 1017 1017 1017 1017 1017 1017 1017 1017 
1017 1017 1017 1017 1017 1017 1017 1017 1017 
1017 1017 1017 1017 1017 1017 1017 1017 1017 
1017 1017 1017 1017 1017 1017 1017 1017 1017 
1017 1017 1017 1017 1017 1017 1017 1017 1017 
1017 1017 1017 1017 1017 1017 1017 1017 1017 
1017 1017 1017 1017 1017 1017 1017 1017 1017 
1017 1017 1017 1017 1017 1017 1017 1017 1017 
1017 1017 1017 1017 1017 1017 1017 1017 1017 
1017 1017 1017 1017 1017 1017 1017 1017 1017 
1017 1017 1017 1017 1017 1017 1017 1017 1017 
1017 1017 1017 1017 1017 1017 1017 1017 1017 
1017 1017 1017 1017 1017 1017 1017 1017 1017 
1017 1017 1017 1017 1017 1017 1017 1017 1017 
1017 1017 1017 1017 1017 1017 1017 1017 1017 
1017 1017 1017 1017 1017 1017 1017 1017 1017 
1017 1017 1017 1017 1017 1017 1017 1017 1017 
1017 1017 1017 1017 1017 1017 1017 1017 1017 
1017 1017 1017 1017 1017 1017 1017 1017 1017 
1017 1017 1017 1017 1017 1017 1017 1017 1017 
1017 1017 1017 1017 1017 1017 1017 1017 1017 
1017 1017 1017 1017 1017 1017 1017 1017 1017 
1017 1017 1017 1017 1017 1017 1017 1017 1017 
1017 1017 1017 1017 1017 1017 1017 1017 1017 
1017 1017 1017 1017 1017 1017 1017 1017 1017 
1017 1017 1017 1017 1017 1017 1017 1017 1017 
1017 1017 1017 1017 1017 1017 1017 1017 1017 
1017 1017 1017 1017 1017 1017 1017 1017 1017 
1017 1017 1017 1017 1017 1017 1017 1017 1017 
1017 1017 1017 1017 1017 1017 1017 1017 1017 
1017 1017 1017 1017 1017 1017 1017 1017 1017 
1017 1017 1017 1017 1017 1017 1017 1017 1017 
1017 1017 1017 1017 1017 1017 1017 1017 1017 
1017 1017 1017 1017 1017 1017 1017 1017 1017 
1017 1017 1017 1017 1017 1017 1017 1017 1017 
1017 1017 1017 1017 1017 1017 1017 1017 1017 
1017 1017 1017 1017 1017 1017 1017 1017 1017 
1017 1017 1017 1017 1017 1017 1017 1017 1017 
1017 1017 1017 1017 1017 1017 1017 1017 1017 
1017 1017 1017 1017 1017 1017 1017 1017 1017 
1017 1017 1017 1017 1017 1017 1017 1017 1017 
1017 1017 1017 1017 1017 1017 1017 1017 1017 
1017 1017 1017 1017 1017 1017 1017 1017 1017 
1017 1017 1017 1017 1017 1017 1017 1017 1017 
1017 1017 1017 1017 1017 1017 1017 1017 1017 
1017 1017 1017 1017 1017 1017 1017 1017 1017 
1017 1017 1017 1017 1017 1017 1017 1017 1017 
1017 1017 1017 1017 1017 1017 1017 1017 1017 
1017 1017 1017 1017 1017 1017 1017 1017 1017 
1017 1017 1017 1017 1017 1017 1017 1017 1017 
1017 1017 1017 1017 1017 1017 1017 1017 1017 
1017 1017 1017 1017 1017 1017 1017 1017 1017 
1017 1017 1017 1017 1017 1017 1017 1017 1017 
1017 1017 1017 1017 1017 1017 1017 1017 1017 
1017 1017 1017 1017 1017 1017 1017 1017 1017 
1017 1017 1017 1017 1017 1017 1017 1017 1017 
1017 1017 1017 1017 1017 1017 1017 1017 1017 
1017 1017 1017 1017 1017 1017 1017 1017 1017 
1017 1017 1017 1017 1017 1017 1017 1017 1017 
1017 1017 1017 1017 1017 1017 1017 1017 1017 
1017 1017 1017 1017 1017 1017 1017 1017 1017 
1017 1017 1017 1017 1017 1017 1017 1017 1017 
1017 1017 1017 1017 1017 1017 1017 1017 1017 
1017 1017 1017 1017 1017 1017 1017 1017 1017 
1017 1017 1017 1017 1017 1017 1017 1017 1017 
1017 1017 1017 1017 1017 1017 1017 1017 1017 
1017 1017 1017 1017 1017 1017 1017 1017 1017 
1017 1017 1017 1017 1017 1017 1017 1017 1017 
1017 1017 1017 1017 1017 1017 1017 1017 1017 
1017 1017 1017 1017 1017 1017 1017 1017 1017 
1017 1017 1017 1017 1017 1017 1017 1017 1017 
1017 1017 1017 1017 1017 1017 1017 1017 1017 
1017 1017 1017 1017 1017 1017 1017 1017 1017 
1017 1017 1017 1017 1017 1017 1017 1017 1017 
1017 1017 1017 1017 1017 1017 1017 1017 1017 
1017 1017 1017 1017 1017 1017 1017 1017 1017 
1017 1017 1017 1017 1017 1017 1017 1017 1017 
1017 1017 1017 1017 1017 1017 1017 1017 1017 
1017 1017 1017 1017 1017 1017 1017 1017 1017 
1017 1017 1017 1017 1017 1017 1017 1017 1017 
1017 1017 1017 1017 1017 1017 1017 1017 1017 
1017 1017 1017 1017 1017 1017 1017 1017 1017 
1017 1017 1017 1017 1017 1017 1017 1017 1017 
1017 1017 1017 1017 1017 1017 1017 1017 1017 
1017 1017 1017 1017 1017 1017 1017 1017 1017 
1017 1017 1017 1017 1017 1017 1017 1017 1017 
1017 1017 1017 1017 1017 1017 1017 1017 1017 
1017 1017 1017 1017 1017 1017 1017 1017 1017 
1017 1017 1017 1017 1017 1017 1017 1017 1017 
1017 1017 1017 1017 1017 1017 1017 1017 1017 
1017 1017 1017 1017 1017 1017 1017 1017 1017 
1017 1017 1017 1017 1017 1017 1017 1017 1017 
1017 1017 1017 1017 1017 1017 1017 1017 1017 
1017 1017 1017 1017 1017 1017 1017 1017 1017 
1017 1017 1017 1017 1017 1017 1017 1017 1017 
1017 1017 1017 1017 1017 1017 1017 1017 1017 
1017 1017 1017 1017 1017 1017 1017 1017 1017 
1017 1017 1017 1017 1017 1017 1017 1017 1017 
1017 1017 1017 1017 1017 1017 1017 1017 1017 
1017 1017 1017 1017 1017 1017 1017 1017 1017 
1017 1017 1017 1017 1017 1017 1017 1017 1017 
1017 1017 1017 1017 1017 1017 1017 1017 1017 
1017 1017 1017 1017 1017 1017 1017 1017 1017 
1017 1017 1017 1017 1017 1017 1017 1017 1017 
1017 1017 1017 1017 1017 1017 1017 1017 1017 
1017 1017 1017 1017 1017 1017 1017 1017 1017 
1017 1017 1017 1017 1017 1017 1017 1017 1017 
1017 1017 1017 1017 1017 1017 1017 1017 1017 
1017 1017 1017 1017 1017 1017 1017 1017 1017 
1017 1017 1017 1017 1017 1017 1017 1017 1017 
1017 1017 1017 1017 1017 1017 1017 1017 1017 
1017 1017 1017 1017 1017 1017 1017 1017 1017 
1017 1017 1017 1017 1017 1017 1017 1017 1017 
1017 1017 1017 1017 1017 1017 1017 1017 1017 
1017 1017 1017 1017 1017 1017 1017 1017 1017 
1017 1017 1017 1017 1017 1017 1017 1017 1017 
1017 1017 1017 1017 1017 1017 1017 1017 1017 
1017 1017 1017 1017 1017 1017 1017 1017 1017 
1017 1017 1017 1017 1017 1017 1017 1017 1017 
1017 1017 1017 1017 1017 1017 1017 1017 1017 
1017 1017 1017 1017 1017 1017 1017 1017 1017 
1017 1017 1017 1017 1017 1017 1017 1017 1017 
1017 1017 1017 1017 1017 1017 1017 1017 1017 
1017 1017 1017 1017 1017 1017 1017 1017 1017 
1017 1017 1017 1017 1017 1017 1017 1017 1017 
1017 1017 1017 1017 1017 1017 1017 1017 1017 
1017 1017 1017 1017 1017 1017 1017 1017 1017 
1017 1017 1017 1017 1017 1017 1017 1017 1017 
1017 1017 1017 1017 1017 1017 1017 1017 1017 
1017 1017 1017 1017 1017 1017 1017 1017 1017 
1017 1017 1017 1017 1017 1017 1017 1017 1017 
1017 1017 1017 1017 1017 1017 1017 1017 1017 
1017 1017 1017 1017 1017 1017 1017 1017 1017 
1017 1017 1017 1017 1017 1017 1017 1017 1017 
1017 1017 1017 1017 1017 1017 1017 1017 1017 
1017 1017 1017 1017 1017 1017 1017 1017 1017 
1017 1017 1017 1017 1017 1017 1017 1017 1017 
1017 1017 1017 1017 1017 1017 1017 1017 1017 
1017 1017 1017 1017 1017 1017 1017 1017 1017 
1017 1017 1017 1017 1017 1017 1017 1017 1017 
1017 1017 1017 1017 1017 1017 1017 1017 1017 
1017 1017 1017 1017 1017 1017 1017 1017 1017 
1017 1017 1017 1017 1017 1017 1017 1017 1017 
1017 1017 1017 1017 1017 1017 1017 1017 1017 
1017 1017 1017 1017 1017 1017 1017 1017 1017 
1017 1017 1017 1017 1017 1017 1017 1017 1017 
1017 1017 1017 1017 1017 1017 1017 1017 1017 
1017 1017 1017 1017 1017 1017 1017 1017 1017 
1017 1017 1017 1017 1017 1017 1017 1017 1017 
1017 1017 1017 1017 1017 1017 1017 1017 1017 
1017 1017 1017 1017 1017 1017 1017 1017 1017 
1017 1017 1017 1017 1017 1017 1017 1017 1017 
1017 1017 1017 1017 1017 1017 1017 1017 1017 
1017 1017 1017 1017 1017 1017 1017 1017 1017 
1017 1017 1017 1017 1017 1017 1017 1017 1017 
1017 1017 1017 1017 1017 1017 1017 1017 1017 
1017 1017 1017 1017 1017 1017 1017 1017 1017 
1017 1017 1017 1017 1017 1017 1017 1017 1017 
1017 1017 1017 1017 1017 1017 1017 1017 1017 
1017 1017 1017 1017 1017 1017 1017 1017 1017 
1017 1017 1017 1017 1017 1017 1017 1017 1017 
1017 1017 1017 1017 1017 1017 1017 1017 1017 
1017 1017 1017 1017 1017 1017 1017 1017 1017 
1017 1017 1017 1017 1017 1017 1017 1017 1017 
1017 1017 1017 1017 1017 1017 1017 1017 1017 
1017 1017 1017 1017 1017 1017 1017 1017 1017 
1017 1017 1017 1017 1017 1017 1017 1017 1017 
1017 1017 1017 1017 1017 1017 1017 1017 1017 
1017 1017 1017 1017 1017 1017 1017 1017 1017 
1017 1017 1017 1017 1017 1017 1017 1017 1017 
1017 1017 1017 1017 1017 1017 1017 1017 1017 
1017 1017 1017 1017 1017 1017 1017 1017 1017 
1017 1017 1017 1017 1017 1017 1017 1017 1017 
1017 1017 1017 1017 1017 1017 1017 1017 1017 
1017 1017 1017 1017 1017 1017 1017 1017 1017 
1017 1017 1017 1017 1017 1017 1017 1017 1017 
1017 1017 1017 1017 1017 1017 1017 1017 1017 
1017 1017 1017 1017 1017 1017 1017 1017 1017 
1017 1017 1017 1017 1017 1017 1017 1017 1017 
1017 1017 1017 1017 1017 1017 1017 1017 1017 
1017 1017 1017 1017 1017 1017 1017 1017 1017 
1017 1017 1017 1017 1017 1017 1017 1017 1017 
1017 1017 1017 1017 1017 1017 1017 1017 1017 
1017 1017 1017 1017 1017 1017 1017 1017 1017 
1017 1017 1017 1017 1017 1017 1017 1017 1017 
1017 1017 1017 1017 1017 1017 1017 1017 1017 
1017 1017 1017 1017 1017 1017 1017 1017 1017 
1017 1017 1017 1017 1017 1017 1017 1017 1017 
1017 1017 1017 1017 1017 1017 1017 1017 1017 
1017 1017 1017 1017 1017 1017 1017 1017 1017 
1017 1017 1017 1017 1017 1017 1017 1017 1017 
1017 1017 1017 1017 1017 1017 1017 1017 1017 
1017 1017 1017 1017 1017 1017 1017 1017 1017 
1017 1017 1017 1017 1017 1017 1017 1017 1017 
1017 1017 1017 1017 1017 1017 1017 1017 1017 
1017 1017 1017 1017 1017 1017 1017 1017 1017 
1017 1017 1017 1017 1017 1017 1017 1017 1017 
1017 1017 1017 1017 1017 1017 1017 1017 1017 
1017 1017 1017 1017 1017 1017 1017 1017 1017 
1017 1017 1017 1017 1017 1017 1017 1017 1017 
1017 1017 1017 1017 1017 1017 1017 1017 1017 
1017 1017 1017 1017 1017 1017 1017 1017 1017 
1017 1017 1017 1017 1017 1017 1017 1017 1017 
1017 1017 1017 1017 1017 1017 1017 1017 1017 
1017 1017 1017 1017 1017 1017 1017 1017 1017 
1017 1017 1017 1017 1017 1017 1017 1017 1017 
1017 1017 1017 1017 1017 1017 1017 1017 1017 
1017 1017 1017 1017 1017 1017 1017 1017 1017 
1017 1017 1017 1017 1017 1017 1017 1017 1017 
1017 1017 1017 1017 1017 1017 1017 1017 1017 
1017 1017 1017 1017 1017 1017 1017 1017 1017 
1017 1017 1017 1017 1017 1017 1017 1017 1017 
1017 1017 1017 1017 1017 1017 1017 1017 1017 
1017 1017 1017 1017 1017 1017 1017 1017 1017 
1017 1017 1017 1017 1017 1017 1017 1017 1017 
1017 1017 1017 1017 1017 1017 1017 1017 1017 
1017 1017 1017 1017 1017 1017 1017 1017 1017 
1017 1017 1017 1017 1017 1017 1017 1017 1017 
1017 1017 1017 1017 1017 1017 1017 1017 1017 
1017 1017 1017 1017 1017 1017 1017 1017 1017 
1017 1017 1017 1017 1017 1017 1017 1017 1017 
1017 1017 1017 1017 1017 1017 1017 1017 1017 
1017 1017 1017 1017 1017 1017 1017 1017 1017 
1017 1017 1017 1017 1017 1017 1017 1017 1017 
1017 1017 1017 1017 1017 1017 1017 1017 1017 
1017 1017 1017 1017 1017 1017 1017 1017 1017 
1017 1017 1017 1017 1017 1017 1017 1017 1017 
1017 1017 1017 1017 1017 1017 1017 1017 1017 
1017 1017 1017 1017 1017 1017 1017 1017 1017 
1017 1017 1017 1017 1017 1017 1017 1017 1017 
1017 1017 1017 1017 1017 1017 1017 1017 1017 
1017 1017 1017 1017 1017 1017 1017 1017 1017 
1017 1017 1017 1017 1017 1017 1017 1017 1017 
1017 1017 1017 1017 1017 1017 1017 1017 1017 
1017 1017 1017 1017 1017 1017 1017 1017 1017 
1017 1017 1017 1017 1017 1017 1017 1017 1017 
1017 1017 1017 1017 1017 1017 1017 1017 1017 
1017 1017 1017 1017 1017 1017 1017 1017 1017 
1017 1017 1017 1017 1017 1017 1017 1017 1017 
1017 1017 1017 1017 1017 1017 1017 1017 1017 
1017 1017 1017 1017 1017 1017 1017 1017 1017 
1017 1017 1017 1017 1017 1017 1017 1017 1017 
1017 1017 1017 1017 1017 1017 1017 1017 1017 
1017 1017 1017 1017 1017 1017 1017 1017 1017 
1017 1017 1017 1017 1017 1017 1017 1017 1017 
1017 1017 1017 1017 1017 1017 1017 1017 1017 
1017 1017 1017 1017 1017 1017 1017 1017 1017 
1017 1017 1017 1017 1017 1017 1017 1017 1017 
1017 1017 1017 1017 1017 1017 1017 1017 1017 
1017 1017 1017 1017 1017 1017 1017 1017 1017 
1017 1017 1017 1017 1017 1017 1017 1017 1017 
1017 1017 1017 1017 1017 1017 1017 1017 1017 
1017 1017 1017 1017 1017 1017 1017 1017 1017 
1017 1017 1017 1017 1017 1017 1017 1017 1017 
1017 1017 1017 1017 1017 1017 1017 1017 1017 
1017 1017 1017 1017 1017 1017 1017 1017 1017 
1017 1017 1017 1017 1017 1017 1017 1017 1017 
1017 1017 1017 1017 1017 1017 1017 1017 1017 
1017 1017 1017 1017 1017 1017 1017 1017 1017 
1017 1017 1017 1017 1017 1017 1017 1017 1017 
1017 1017 1017 1017 1017 1017 1017 1017 1017 
1017 1017 1017 1017 1017 1017 1017 1017 1017 
1017 1017 1017 1017 1017 1017 1017 1017 1017 
1017 1017 1017 1017 1017 1017 1017 1017 1017 
1017 1017 1017 1017 1017 1017 1017 1017 1017 
1017 1017 1017 1017 1017 1017 1017 1017 1017 
1017 1017 1017 1017 1017 1017 1017 1017 1017 
1017 1017 1017 1017 1017 1017 1017 1017 1017 
1017 1017 1017 1017 1017 1017 1017 1017 1017 
1017 1017 1017 1017 1017 1017 1017 1017 1017 
1017 1017 1017 1017 1017 1017 1017 1017 1017 
1017 1017 1017 1017 1017 1017 1017 1017 1017 
1017 1017 1017 1017 1017 1017 1017 1017 1017 
1017 1017 1017 1017 1017 1017 1017 1017 1017 
1017 1017 1017 1017 1017 1017 1017 1017 1017 
1017 1017 1017 1017 1017 1017 1017 1017 1017 
1017 1017 1017 1017 1017 1017 1017 1017 1017 
1017 1017 1017 1017 1017 1017 1017 1017 1017 
1017 1017 1017 1017 1017 1017 1017 1017 1017 
1017 1017 1017 1017 1017 1017 1017 1017 1017 
1017 1017 1017 1017 1017 1017 1017 1017 1017 
1017 1017 1017 1017 1017 1017 1017 1017 1017 
1017 1017 1017 1017 1017 1017 1017 1017 1017 
1017 1017 1017 1017 1017 1017 1017 1017 1017 
1017 1017 1017 1017 1017 1017 1017 1017 1017 
1017 1017 1017 1017 1017 1017 1017 1017 1017 
1017 1017 1017 1017 1017 1017 1017 1017 1017 
1017 1017 1017 1017 1017 1017 1017 1017 1017 
1017 1017 1017 1017 1017 1017 1017 1017 1017 
1017 1017 1017 1017 1017 1017 1017 1017 1017 
1017 1017 1017 1017 1017 1017 1017 1017 1017 
1017 1017 1017 1017 1017 1017 1017 1017 1017 
1017 1017 1017 1017 1017 1017 1017 1017 1017 
1017 1017 1017 1017 1017 1017 1017 1017 1017 
1017 1017 1017 1017 1017 1017 1017 1017 1017 
1017 1017 1017 1017 1017 1017 1017 1017 1017 
1017 1017 1017 1017 1017 1017 1017 1017 1017 
1017 1017 1017 1017 1017 1017 1017 1017 1017 
1017 1017 1017 1017 1017 1017 1017 1017 1017 
1017 1017 1017 1017 1017 1017 1017 1017 1017 
1017 1017 1017 1017 1017 1017 1017 1017 1017 
1017 1017 1017 1017 1017 1017 1017 1017 1017 
1017 1017 1017 1017 1017 1017 1017 1017 1017 
1017 1017 1017 1017 1017 1017 1017 1017 1017 
1017 1017 1017 1017 1017 1017 1017 1017 1017 
1017 1017 1017 1017 1017 1017 1017 1017 1017 
1017 1017 1017 1017 1017 1017 1017 1017 1017 
1017 1017 1017 1017 1017 1017 1017 1017 1017 
1017 1017 1017 1017 1017 1017 1017 1017 1017 
1017 1017 1017 1017 1017 1017 1017 1017 1017 
1017 1017 1017 1017 1017 1017 1017 1017 1017 
1017 1017 1017 1017 1017 1017 1017 1017 1017 
1017 1017 1017 1017 1017 1017 1017 1017 1017 
1017 1017 1017 1017 1017 1017 1017 1017 1017 
1017 1017 1017 1017 1017 1017 1017 1017 1017 
1017 1017 1017 1017 1017 1017 1017 1017 1017 
1017 1017 1017 1017 1017 1017 1017 1017 1017 
1017 1017 1017 1017 1017 1017 1017 1017 1017 
1017 1017 1017 1017 1017 1017 1017 1017 1017 
1017 1017 1017 1017 1017 1017 1017 1017 1017 
1017 1017 1017 1017 1017 1017 1017 1017 1017 
1017 1017 1017 1017 1017 1017 1017 1017 1017 
1017 1017 1017 1017 1017 1017 1017 1017 1017 
1017 1017 1017 1017 1017 1017 1017 1017 1017 
1017 1017 1017 1017 1017 1017 1017 1017 1017 
1017 1017 1017 1017 1017 1017 1017 1017 1017 
1017 1017 1017 1017 1017 1017 1017 1017 1017 
1017 1017 1017 1017 1017 1017 1017 1017 1017 
1017 1017 1017 1017 1017 1017 1017 1017 1017 
1017 1017 1017 1017 1017 1017 1017 1017 1017 
1017 1017 1017 1017 1017 1017 1017 1017 1017 
1017 1017 1017 1017 1017 1017 1017 1017 1017 
1017 1017 1017 1017 1017 1017 1017 1017 1017 
1017 1017 1017 1017 1017 1017 1017 1017 1017 
1017 1017 1017 1017 1017 1017 1017 1017 1017 
1017 1017 1017 1017 1017 1017 1017 1017 1017 
1017 1017 1017 1017 1017 1017 1017 1017 1017 
1017 1017 1017 1017 1017 1017 1017 1017 1017 
1017 1017 1017 1017 1017 1017 1017 1017 1017 
1017 1017 1017 1017 1017 1017 1017 1017 1017 
1017 1017 1017 1017 1017 1017 1017 1017 1017 
1017 1017 1017 1017 1017 1017 1017 1017 1017 
1017 1017 1017 1017 1017 1017 1017 1017 1017 
1017 1017 1017 1017 1017 1017 1017 1017 1017 
1017 1017 1017 1017 1017 1017 1017 1017 1017 
1017 1017 1017 1017 1017 1017 1017 1017 1017 
1017 1017 1017 1017 1017 1017 1017 1017 1017 
1017 1017 1017 1017 1017 1017 1017 1017 1017 
1017 1017 1017 1017 1017 1017 1017 1017 1017 
1017 1017 1017 1017 1017 1017 1017 1017 1017 
1017 1017 1017 1017 1017 1017 1017 1017 1017 
1017 1017 1017 1017 1017 1017 1017 1017 1017 
1017 1017 1017 1017 1017 1017 1017 1017 1017 
1017 1017 1017 1017 1017 1017 1017 1017 1017 
1017 1017 1017 1017 1017 1017 1017 1017 1017 
1017 1017 1017 1017 1017 1017 1017 1017 1017 
1017 1017 1017 1017 1017 1017 1017 1017 1017 
1017 1017 1017 1017 1017 1017 1017 1017 1017 
1017 1017 1017 1017 1017 1017 1017 1017 1017 
1017 1017 1017 1017 1017 1017 1017 1017 1017 
1017 1017 1017 1017 1017 1017 1017 1017 1017 
1017 1017 1017 1017 1017 1017 1017 1017 1017 
1017 1017 1017 1017 1017 1017 1017 1017 1017 
1017 1017 1017 1017 1017 1017 1017 1017 1017 
1017 1017 1017 1017 1017 1017 1017 1017 1017 
1017 1017 1017 1017 1017 1017 1017 1017 1017 
1017 1017 1017 1017 1017 1017 1017 1017 1017 
1017 1017 1017 1017 1017 1017 1017 1017 1017 
1017 1017 1017 1017 1017 1017 1017 1017 1017 
1017 1017 1017 1017 1017 1017 1017 1017 1017 
1017 1017 1017 1017 1017 1017 1017 1017 1017 
1017 1017 1017 1017 1017 1017 1017 1017 1017 
1017 1017 1017 1017 1017 1017 1017 1017 1017 
1017 1017 1017 1017 1017 1017 1017 1017 1017 
1017 1017 1017 1017 1017 1017 1017 1017 1017 
1017 1017 1017 1017 1017 1017 1017 1017 1017 
1017 1017 1017 1017 1017 1017 1017 1017 1017 
1017 1017 1017 1017 1017 1017 1017 1017 1017 
1017 1017 1017 1017 1017 1017 1017 1017 1017 
1017 1017 1017 1017 1017 1017 1017 1017 1017 
1017 1017 1017 1017 1017 1017 1017 1017 1017 
1017 1017 1017 1017 1017 1017 1017 1017 1017 
1017 1017 1017 1017 1017 1017 1017 1017 1017 
1017 1017 1017 1017 1017 1017 1017 1017 1017 
1017 1017 1017 1017 1017 1017 1017 1017 1017 
1017 1017 1017 1017 1017 1017 1017 1017 1017 
1017 1017 1017 1017 1017 1017 1017 1017 1017 
1017 1017 1017 1017 1017 1017 1017 1017 1017 
1017 1017 1017 1017 1017 1017 1017 1017 1017 
1017 1017 1017 1017 1017 1017 1017 1017 1017 
1017 1017 1017 1017 1017 1017 1017 1017 1017 
1017 1017 1017 1017 1017 1017 1017 1017 1017 
1017 1017 1017 1017 1017 1017 1017 1017 1017 
1017 1017 1017 1017 1017 1017 1017 1017 1017 
1017 1017 1017 1017 1017 1017 1017 1017 1017 
1017 1017 1017 1017 1017 1017 1017 1017 1017 
1017 1017 1017 1017 1017 1017 1017 1017 1017 
1017 1017 1017 1017 1017 1017 1017 1017 1017 
1017 1017 1017 1017 1017 1017 1017 1017 1017 
1017 1017 1017 1017 1017 1017 1017 1017 1017 
1017 1017 1017 1017 1017 1017 1017 1017 1017 
1017 1017 1017 1017 1017 1017 1017 1017 1017 
1017 1017 1017 1017 1017 1017 1017 1017 1017 
1017 1017 1017 1017 1017 1017 1017 1017 1017 
1017 1017 1017 1017 1017 1017 1017 1017 1017 
1017 1017 1017 1017 1017 1017 1017 1017 1017 
1017 1017 1017 1017 1017 1017 1017 1017 1017 
1017 1017 1017 1017 1017 1017 1017 1017 1017 
1017 1017 1017 1017 1017 1017 1017 1017 1017 
1017 1017 1017 1017 1017 1017 1017 1017 1017 
1017 1017 1017 1017 1017 1017 1017 1017 1017 
1017 1017 1017 1017 1017 1017 1017 1017 1017 
1017 1017 1017 1017 1017 1017 1017 1017 1017 
1017 1017 1017 1017 1017 1017 1017 1017 1017 
1017 1017 1017 1017 1017 1017 1017 1017 1017 
1017 1017 1017 1017 1017 1017 1017 1017 1017 
1017 1017 1017 1017 1017 1017 1017 1017 1017 
1017 1017 1017 1017 1017 1017 1017 1017 1017 
1017 1017 1017 1017 1017 1017 1017 1017 1017 