# vtk DataFile Version 4.0
vtk output
ASCII
DATASET POLYDATA
POINTS 1754 float
5.9079 72.8182 1.6996 6.14269 72.193 2.31788 6.64952 72.6441 1.91255 
5.44059 72.3817 2.11762 7.72747 72.8411 0.901298 8.07715 72.3017 1.30659 
8.31074 72.5411 0.780479 6.75034 72.9716 1.07418 7.39695 72.3727 1.64088 
5.82477 73.0586 0.846204 5.10207 72.6169 1.71854 4.89799 72.9304 1.00429 
3.79627 72.8115 0.734315 4.32424 72.5309 1.4737 3.56536 72.4622 1.16657 
7.88974 72.8704 0.0320322 8.42344 72.3904 0.0400148 7.0339 73.0732 -0.01644 
6.01888 73.0825 -0.0245333 4.97685 73.072 -0.0105238 3.93478 73.0305 -0.0446404 
3.11617 72.5942 0.570136 3.06827 72.8117 -0.106894 2.61902 72.4553 0.0528089 
7.90949 72.6367 -0.65972 7.58208 72.4018 -1.18024 7.22165 72.8458 -0.826617 
6.26872 72.9 -0.906289 5.0813 72.923 -1.02348 3.95035 73.0542 -1.0505 
3.0583 72.9041 -1.04929 2.44443 72.4956 -0.810076 6.75401 72.2614 -1.38131 
5.75735 72.4968 -1.36251 5.00635 72.4356 -1.63463 4.52626 72.4728 -2.30936 
4.00019 72.9091 -2.00577 3.05784 72.917 -2.07038 2.42388 72.5152 -1.83233 
3.82013 72.8036 -2.98606 4.27983 72.4345 -3.10624 3.07082 72.8974 -3.04963 
2.4174 72.5405 -2.84333 3.79223 72.5815 -3.64565 3.44678 72.504 -4.07785 
3.19409 72.7392 -3.79393 2.48656 72.5207 -3.75451 3.96788 72.5753 -5.07797 
4.15374 72.4135 -4.82531 4.20901 72.4203 -5.23126 2.93399 72.3879 -4.31233 
3.72753 72.4287 -4.90251 3.78279 72.4355 -5.30846 6.92255 72.1209 2.15515 
6.77284 71.3117 2.40846 7.4031 71.4643 1.89661 5.87527 71.3496 2.56601 
4.68532 72.1158 2.05744 5.20802 71.7197 2.4325 3.68902 72.0251 1.84255 
4.11729 71.2549 2.53782 2.73635 71.8311 1.73997 3.04305 71.382 2.30779 
2.3503 71.3898 2.09459 7.88907 71.5735 1.42464 8.48195 71.8535 0.852378 
2.86006 72.2074 0.929459 1.87094 71.3441 1.6442 2.09912 71.8268 0.938659 
1.4628 71.3824 1.01558 8.85764 71.9099 -0.0824912 8.83969 71.1804 0.4376 
9.2883 71.5513 -0.288799 2.08799 72.0133 -0.13866 1.46053 71.5098 0.244827 
9.07 71.803 -0.813454 9.53773 71.2974 -0.916679 8.37699 72.108 -0.897467 
1.95557 71.9844 -1.32485 1.46217 71.5061 -0.765334 8.85309 71.2906 -1.36339 
7.75644 71.6868 -1.43677 6.89727 71.3215 -1.64813 5.85426 71.7942 -1.64849 
5.21347 71.956 -2.09135 5.68483 71.5075 -2.09759 1.9431 71.9945 -2.34092 
1.46865 71.4862 -1.76681 5.77928 71.7649 -2.99466 6.09979 71.345 -2.52164 
6.53442 71.4972 -3.13683 4.86052 72.0874 -2.95549 1.92256 72.0171 -3.34468 
1.45039 71.4879 -2.78789 14.7518 71.8672 -4.11649 15.1255 71.3959 -3.43841 
15.4145 71.413 -4.05036 13.7506 71.9353 -4.14071 14.3375 71.5512 -3.44614 
12.7246 71.9131 -4.14808 13.2908 71.5586 -3.48532 11.7362 71.9252 -4.14137 
12.2682 71.5629 -3.48544 10.7426 71.9318 -4.15854 11.251 71.5719 -3.48548 
9.8141 71.8409 -4.3329 10.0894 71.3447 -3.5417 9.41564 71.3764 -4.01716 
6.80025 71.8304 -4.0947 7.14657 71.4106 -3.60555 7.6214 71.5651 -4.21663 
5.84237 71.9565 -4.13699 5.14603 71.9735 -3.80723 4.01866 72.2519 -4.15439 
2.09562 72.0006 -4.36273 1.44388 71.3985 -3.93558 14.9418 71.9548 -5.00987 
15.3956 71.3049 -5.06532 14.0269 72.087 -5.02384 13.1465 72.0457 -4.87856 
12.2528 71.9095 -5.05871 11.2237 71.9174 -4.86561 10.2473 71.9243 -4.88842 
9.10093 71.5989 -4.44084 9.14 71.8089 -4.93355 7.88284 71.8118 -4.99031 
8.36729 71.5235 -4.49622 6.87459 72.0052 -5.17583 6.00166 72.0256 -5.07057 
4.8599 72.1223 -4.91856 3.09716 72.1699 -5.07259 2.18885 71.7911 -5.25527 
1.62082 71.3657 -4.9321 14.9515 71.8741 -5.96922 15.3083 71.3245 -6.0183 
14.2441 72.0897 -5.87436 13.2376 71.8792 -5.95964 12.4327 71.5504 -5.87034 
11.6982 71.5049 -5.57435 10.7668 71.5169 -5.47863 9.74112 71.5239 -5.49643 
8.70013 71.534 -5.54411 7.90638 71.5995 -5.69863 7.41445 71.441 -6.19279 
7.18456 71.81 -5.77424 6.1098 71.9093 -6.06723 5.01446 72.0152 -6.06513 
3.99837 72.1412 -5.80024 3.04215 71.8363 -6.10591 2.31582 71.5588 -5.87351 
1.84477 71.3351 -5.56812 14.9185 71.5368 -6.54917 14.7315 71.2902 -7.18549 
14.0611 71.8894 -7.03354 13.2756 71.5569 -6.88753 12.8381 71.3919 -6.46255 
6.65496 71.5085 -6.48205 5.86938 71.6032 -6.74874 5.4594 71.5165 -7.10232 
5.17159 71.7978 -6.84705 4.12889 71.8232 -6.86715 3.34106 71.588 -6.93281 
2.74547 71.4609 -6.47447 14.7327 71.9004 -7.95859 15.031 71.3551 -7.75472 
15.3314 71.4497 -8.34284 13.8673 72.0708 -8.18288 13.1869 71.5563 -7.47812 
12.9892 71.8337 -8.15647 12.6185 71.4088 -7.89358 4.92287 71.3743 -7.48825 
3.87629 71.4682 -7.44792 14.962 71.8408 -8.97421 15.3708 71.2663 -9.03907 
14.0657 72.106 -9.01932 13.0114 72.0679 -9.05749 12.1088 71.5583 -8.37485 
11.8832 71.9031 -9.02817 10.747 71.8826 -9.15997 11.1285 71.3845 -8.53948 
9.84442 71.8317 -9.24735 10.0819 71.3684 -8.74317 9.43857 71.3769 -8.92397 
14.8544 71.3766 -9.56929 14.2981 71.3835 -10.0114 14.1185 71.892 -9.94583 
13.0759 72.089 -10.068 11.9933 72.0632 -10.0586 10.98 72.0468 -10.013 
10.0101 72.035 -10.0016 9.11548 71.6208 -9.29921 8.94468 71.9284 -9.97682 
7.7857 71.9008 -10.1332 8.14344 71.4302 -9.48879 6.81155 71.8387 -10.2292 
7.10265 71.3922 -9.70932 6.4165 71.3424 -9.91357 13.7417 71.3668 -10.4704 
13.2346 71.403 -10.9956 13.2091 71.8639 -10.8 12.1191 71.9627 -11.0696 
11.0019 72.047 -11.0472 9.98924 72.051 -11.0326 9.00694 72.0388 -11.0092 
8.02323 72.0303 -10.9919 7.02241 72.0447 -10.9847 5.91656 71.4916 -10.3325 
5.88653 71.9527 -11.0075 4.96822 71.8154 -11.2639 5.23466 71.5763 -10.7446 
4.70842 71.3076 -11.0195 12.6482 71.4884 -11.3134 11.9221 71.5354 -11.6667 
11.4553 71.1613 -12.2385 11.1762 71.8368 -11.8313 10.0527 71.9315 -12.0606 
8.96843 72.0243 -12.0504 7.98126 72.0272 -12.0474 7.01911 72.029 -12.0097 
6.01144 72.0543 -11.9995 4.90632 71.9417 -12.0722 4.37839 71.3666 -11.6961 
10.6747 71.5106 -12.5546 9.88924 71.5941 -12.7929 9.58295 71.3336 -13.1986 
9.13941 71.8086 -12.8308 8.06568 71.8992 -13.0581 6.96501 72.0096 -13.0458 
5.97893 72.0272 -13.04 4.9748 72.0395 -13.0619 3.89808 71.3689 -12.415 
4.0739 71.8381 -13.0917 3.44325 71.3798 -13.0317 8.90403 71.3617 -13.381 
8.01956 71.4554 -13.686 7.46683 71.5073 -14.0229 7.01037 71.841 -13.9181 
5.93743 72.0162 -14.0345 4.93611 72.0409 -14.0599 3.9018 71.935 -14.1089 
3.34748 71.5572 -13.722 7.03827 71.3717 -14.5083 6.52192 71.4914 -15.3395 
5.97262 71.9 -14.9668 4.91032 72.0563 -15.0347 4.09251 72.0393 -14.9144 
3.1053 71.6257 -14.4651 3.28385 71.8144 -15.1678 2.67141 71.1977 -14.9 
5.9281 71.9279 -16.1525 6.60915 71.5837 -16.0949 4.94316 72.0464 -16.0333 
3.93155 71.9491 -15.9147 3.25331 71.642 -15.9972 2.8704 71.3882 -15.6511 
6.65686 71.8426 -16.9879 7.14818 71.4338 -16.5977 7.43971 71.5042 -17.4055 
5.97953 72.0348 -17.0413 5.24036 71.9452 -17.0969 4.24632 71.8395 -16.8915 
3.41019 71.3359 -16.9479 6.98827 71.7676 -17.8622 7.37365 71.4441 -18.2042 
6.15436 71.856 -17.8116 5.37856 71.6265 -17.9083 4.62036 71.5551 -17.6241 
3.91899 71.3567 -17.5316 6.70463 71.499 -18.5055 5.91031 71.4587 -18.4167 
3.82442 70.7069 2.96964 3.91674 70.5166 3.11922 4.27385 70.4501 2.7921 
3.66175 70.5209 3.04562 6.79922 70.2531 2.36123 7.28887 70.7272 2.0284 
6.02091 70.4547 2.5812 5.07882 70.7832 2.62383 3.22877 70.3745 2.65658 
1.90696 71.027 2.04035 2.21611 70.7457 2.3197 1.51893 70.3428 1.96716 
8.2021 71.0773 0.988184 7.57619 70.5347 1.1476 0.923285 70.9392 0.692426 
1.13489 70.6951 1.37711 0.661476 70.2488 1.0279 8.84039 70.236 0.394448 
9.52539 70.8259 -0.205013 8.24451 70.5339 0.708379 0.772521 71.0234 -0.270291 
0.318939 70.3348 0.358146 10.0175 70.8027 -0.906208 10.2672 70.2044 -0.593261 
10.53 70.3418 -1.12749 0.970973 71.1595 -1.17924 0.0654201 70.5821 -0.37892 
0.26962 70.7844 -1.1594 -0.400372 70.1409 -0.889708 9.83327 70.4317 -1.40615 
8.95418 70.4696 -1.55694 7.99168 70.6386 -1.69371 7.13384 70.8296 -2.12764 
7.68262 70.4679 -2.17666 6.25941 71.1851 -2.03253 0.861597 71.0063 -2.13132 
0.28003 70.4556 -2.12802 -0.174615 70.3225 -1.60843 14.761 70.9842 -2.94414 
14.8263 70.2506 -2.74601 15.3699 70.6391 -3.28448 13.812 71.0613 -2.94469 
14.2028 70.527 -2.60777 12.7602 71.0415 -2.97545 13.163 70.3102 -2.467 
11.7309 71.051 -2.98009 11.9598 70.3872 -2.63515 10.7187 71.0283 -2.98871 
10.9141 70.375 -2.65387 10.043 70.9057 -3.01301 9.98843 70.3532 -2.71562 
9.44363 70.474 -3.01564 7.78487 70.7324 -2.94997 7.94307 70.374 -2.53042 
8.40441 70.4185 -3.03114 6.89625 71.0937 -2.8638 0.983016 70.9801 -3.28971 
0.594306 70.5246 -2.89033 15.4499 70.5561 -4.10666 8.64317 71.0456 -3.89663 
9.13775 70.7431 -3.47881 7.77803 71.1681 -3.78117 1.02671 70.8331 -4.1337 
0.628224 70.2547 -3.86676 15.1736 70.5699 -4.68898 15.1526 70.7585 -5.20206 
14.7956 70.1252 -5.0878 1.23622 70.7836 -4.82939 0.869726 70.3549 -4.64119 
14.9669 70.3248 -5.6108 15.2804 70.7727 -5.78233 12.2008 71.1412 -6.31416 
11.3167 70.931 -6.17491 10.2693 70.957 -5.99062 9.0819 71.0016 -6.11939 
8.06579 71.2166 -6.17266 2.10566 71.0677 -6.36145 1.43769 70.5709 -5.86182 
14.8893 70.5939 -6.43142 14.4538 70.2947 -7.17208 12.6704 71.1836 -7.16964 
11.7731 70.8159 -7.10512 11.2954 70.4839 -6.8691 10.7109 70.4211 -6.55933 
9.77137 70.4461 -6.50857 8.92848 70.5363 -6.68289 8.57784 70.2977 -7.09973 
8.20494 70.7883 -6.73577 7.25816 70.9889 -6.83557 6.09519 71.1456 -7.12975 
3.02434 71.2173 -7.20858 2.24382 70.8234 -7.27195 1.64784 70.3566 -6.95529 
15.1978 70.9064 -8.17933 14.7015 70.4549 -7.96616 11.9409 71.1516 -7.91871 
11.1851 70.4756 -7.47361 11.1061 70.7946 -7.98284 10.6107 70.3433 -7.90869 
7.89219 70.3332 -7.281 6.88568 70.4022 -7.53961 5.81324 70.7155 -7.70682 
5.07967 70.8653 -7.97893 5.61759 70.3281 -8.12815 4.0928 71.0371 -7.9555 
3.03113 70.8494 -7.92427 2.36921 70.5963 -7.9006 1.87985 70.3403 -7.63279 
15.0723 70.4578 -8.49243 15.3251 70.736 -8.76296 10.0837 70.5593 -8.3871 
8.69202 71.0973 -9.01817 9.04217 70.5717 -8.66597 7.91199 70.8424 -9.10982 
8.17623 70.4969 -8.80183 7.45326 70.2753 -8.84452 4.86296 70.2552 -8.35881 
3.70207 70.3891 -8.42303 2.73382 70.2746 -8.37018 15.089 70.7342 -9.30216 
14.4004 70.6566 -9.64598 14.0339 71.0016 -10.0883 13.6463 70.2375 -10.1196 
7.05632 70.5912 -9.33876 5.79109 70.9149 -10.0248 6.10504 70.5121 -9.67174 
[...]
CELL_DATA 3512
SCALARS scalars float
LOOKUP_TABLE default
2032 2032 2032 2032 2032 2032 2032 2032 2032 
2032 2032 2032 2032 2032 2032 2032 2032 2032 
2032 2032 2032 2032 2032 2032 2032 2032 2032 
2032 2032 2032 2032 2032 2032 2032 2032 2032 
2032 2032 2032 2032 2032 2032 2032 2032 2032 
2032 2032 2032 2032 2032 2032 2032 2032 2032 
2032 2032 2032 2032 2032 2032 2032 2032 2032 
2032 2032 2032 2032 2032 2032 2032 2032 2032 
2032 2032 2032 2032 2032 2032 2032 2032 2032 
2032 2032 2032 2032 2032 2032 2032 2032 2032 
2032 2032 2032 2032 2032 2032 2032 2032 2032 
2032 2032 2032 2032 2032 2032 2032 2032 2032 
2032 2032 2032 2032 2032 2032 2032 2032 2032 
2032 2032 2032 2032 2032 2032 2032 2032 2032 
2032 2032 2032 2032 2032 2032 2032 2032 2032 
2032 2032 2032 2032 2032 2032 2032 2032 2032 
2032 2032 2032 2032 2032 2032 2032 2032 2032 
2032 2032 2032 2032 2032 2032 2032 2032 2032 
2032 2032 2032 2032 2032 2032 2032 2032 2032 
2032 2032 2032 2032 2032 2032 2032 2032 2032 
2032 2032 2032 2032 2032 2032 2032 2032 2032 
2032 2032 2032 2032 2032 2032 2032 2032 2032 
2032 2032 2032 2032 2032 2032 2032 2032 2032 
2032 2032 2032 2032 2032 2032 2032 2032 2032 
2032 2032 2032 2032 2032 2032 2032 2032 2032 
2032 2032 2032 2032 2032 2032 2032 2032 2032 
2032 2032 2032 2032 2032 2032 2032 2032 2032 
2032 2032 2032 2032 2032 2032 2032 2032 2032 
2032 2032 2032 2032 2032 2032 2032 2032 2032 
2032 2032 2032 2032 2032 2032 2032 2032 2032 
2032 2032 2032 2032 2032 2032 2032 2032 2032 
2032 2032 2032 2032 2032 2032 2032 2032 2032 
2032 2032 2032 2032 2032 2032 2032 2032 2032 
2032 2032 2032 2032 2032 2032 2032 2032 2032 
2032 2032 2032 2032 2032 2032 2032 2032 2032 
2032 2032 2032 2032 2032 2032 2032 2032 2032 
2032 2032 2032 2032 2032 2032 2032 2032 2032 
2032 2032 2032 2032 2032 2032 2032 2032 2032 
2032 2032 2032 2032 2032 2032 2032 2032 2032 
2032 2032 2032 2032 2032 2032 2032 2032 2032 
2032 2032 2032 2032 2032 2032 2032 2032 2032 
2032 2032 2032 2032 2032 2032 2032 2032 2032 
2032 2032 2032 2032 2032 2032 2032 2032 2032 
2032 2032 2032 2032 2032 2032 2032 2032 2032 
2032 2032 2032 2032 2032 2032 2032 2032 2032 
2032 2032 2032 2032 2032 2032 2032 2032 2032 
2032 2032 2032 2032 2032 2032 2032 2032 2032 
2032 2032 2032 2032 2032 2032 2032 2032 2032 
2032 2032 2032 2032 2032 2032 2032 2032 2032 
2032 2032 2032 2032 2032 2032 2032 2032 2032 
2032 2032 2032 2032 2032 2032 2032 2032 2032 
2032 2032 2032 2032 2032 2032 2032 2032 2032 
2032 2032 2032 2032 2032 2032 2032 2032 2032 
2032 2032 2032 2032 2032 2032 2032 2032 2032 
2032 2032 2032 2032 2032 2032 2032 2032 2032 
2032 2032 2032 2032 2032 2032 2032 2032 2032 
2032 2032 2032 2032 2032 2032 2032 2032 2032 
2032 2032 2032 2032 2032 2032 2032 2032 2032 
2032 2032 2032 2032 2032 2032 2032 2032 2032 
2032 2032 2032 2032 2032 2032 2032 2032 2032 
2032 2032 2032 2032 2032 2032 2032 2032 2032 
2032 2032 2032 2032 2032 2032 2032 2032 2032 
2032 2032 2032 2032 2032 2032 2032 2032 2032 
2032 2032 2032 2032 2032 2032 2032 2032 2032 
2032 2032 2032 2032 2032 2032 2032 2032 2032 
2032 2032 2032 2032 2032 2032 2032 2032 2032 
2032 2032 2032 2032 2032 2032 2032 2032 2032 
2032 2032 2032 2032 2032 2032 2032 2032 2032 
2032 2032 2032 2032 2032 2032 2032 2032 2032 
2032 2032 2032 2032 2032 2032 2032 2032 2032 
2032 2032 2032 2032 2032 2032 2032 2032 2032 
2032 2032 2032 2032 2032 2032 2032 2032 2032 
2032 2032 2032 2032 2032 2032 2032 2032 2032 
2032 2032 2032 2032 2032 2032 2032 2032 2032 
2032 2032 2032 2032 2032 2032 2032 2032 2032 
2032 2032 2032 2032 2032 2032 2032 2032 2032 
2032 2032 2032 2032 2032 2032 2032 2032 2032 
2032 2032 2032 2032 2032 2032 2032 2032 2032 
2032 2032 2032 2032 2032 2032 2032 2032 2032 
2032 2032 2032 2032 2032 2032 2032 2032 2032 
2032 2032 2032 2032 2032 2032 2032 2032 2032 
2032 2032 2032 2032 2032 2032 2032 2032 2032 
2032 2032 2032 2032 2032 2032 2032 2032 2032 
2032 2032 2032 2032 2032 2032 2032 2032 2032 
2032 2032 2032 2032 2032 2032 2032 2032 2032 
2032 2032 2032 2032 2032 2032 2032 2032 2032 
2032 2032 2032 2032 2032 2032 2032 2032 2032 
2032 2032 2032 2032 2032 2032 2032 2032 2032 
2032 2032 2032 2032 2032 2032 2032 2032 2032 
2032 2032 2032 2032 2032 2032 2032 2032 2032 
2032 2032 2032 2032 2032 2032 2032 2032 2032 
2032 2032 2032 2032 2032 2032 2032 2032 2032 
2032 2032 2032 2032 2032 2032 2032 2032 2032 
2032 2032 2032 2032 2032 2032 2032 2032 2032 
2032 2032 2032 2032 2032 2032 2032 2032 2032 
2032 2032 2032 2032 2032 2032 2032 2032 2032 
2032 2032 2032 2032 2032 2032 2032 2032 2032 
2032 2032 2032 2032 2032 2032 2032 2032 2032 
2032 2032 2032 2032 2032 2032 2032 2032 2032 
2032 2032 2032 2032 2032 2032 2032 2032 2032 
2032 2032 2032 2032 2032 2032 2032 2032 2032 
2032 2032 2032 2032 2032 2032 2032 2032 2032 
2032 2032 2032 2032 2032 2032 2032 2032 2032 
2032 2032 2032 2032 2032 2032 2032 2032 2032 
2032 2032 2032 2032 2032 2032 2032 2032 2032 
2032 2032 2032 2032 2032 2032 2032 2032 2032 
2032 2032 2032 2032 2032 2032 2032 2032 2032 
2032 2032 2032 2032 2032 2032 2032 2032 2032 
2032 2032 2032 2032 2032 2032 2032 2032 2032 
2032 2032 2032 2032 2032 2032 2032 2032 2032 
2032 2032 2032 2032 2032 2032 2032 2032 2032 
2032 2032 2032 2032 2032 2032 2032 2032 2032 
2032 2032 2032 2032 2032 2032 2032 2032 2032 
2032 2032 2032 2032 2032 2032 2032 2032 2032 
2032 2032 2032 2032 2032 2032 2032 2032 2032 
2032 2032 2032 2032 2032 2032 2032 2032 2032 
2032 2032 2032 2032 2032 2032 2032 2032 2032 
2032 2032 2032 2032 2032 2032 2032 2032 2032 
2032 2032 2032 2032 2032 2032 2032 2032 2032 
2032 2032 2032 2032 2032 2032 2032 2032 2032 
2032 2032 2032 2032 2032 2032 2032 2032 2032 
2032 2032 2032 2032 2032 2032 2032 2032 2032 
2032 2032 2032 2032 2032 2032 2032 2032 2032 
2032 2032 2032 2032 2032 2032 2032 2032 2032 
2032 2032 2032 2032 2032 2032 2032 2032 2032 
2032 2032 2032 2032 2032 2032 2032 2032 2032 
2032 2032 2032 2032 2032 2032 2032 2032 2032 
2032 2032 2032 2032 2032 2032 2032 2032 2032 
2032 2032 2032 2032 2032 2032 2032 2032 2032 
2032 2032 2032 2032 2032 2032 2032 2032 2032 
2032 2032 2032 2032 2032 2032 2032 2032 2032 
2032 2032 2032 2032 2032 2032 2032 2032 2032 
2032 2032 2032 2032 2032 2032 2032 2032 2032 
2032 2032 2032 2032 2032 2032 2032 2032 2032 
2032 2032 2032 2032 2032 2032 2032 2032 2032 
2032 2032 2032 2032 2032 2032 2032 2032 2032 
2032 2032 2032 2032 2032 2032 2032 2032 2032 
2032 2032 2032 2032 2032 2032 2032 2032 2032 
2032 2032 2032 2032 2032 2032 2032 2032 2032 
2032 2032 2032 2032 2032 2032 2032 2032 2032 
2032 2032 2032 2032 2032 2032 2032 2032 2032 
2032 2032 2032 2032 2032 2032 2032 2032 2032 
2032 2032 2032 2032 2032 2032 2032 2032 2032 
2032 2032 2032 2032 2032 2032 2032 2032 2032 
2032 2032 2032 2032 2032 2032 2032 2032 2032 
2032 2032 2032 2032 2032 2032 2032 2032 2032 
2032 2032 2032 2032 2032 2032 2032 2032 2032 
2032 2032 2032 2032 2032 2032 2032 2032 2032 
2032 2032 2032 2032 2032 2032 2032 2032 2032 
2032 2032 2032 2032 2032 2032 2032 2032 2032 
2032 2032 2032 2032 2032 2032 2032 2032 2032 
2032 2032 2032 2032 2032 2032 2032 2032 2032 
2032 2032 2032 2032 2032 2032 2032 2032 2032 
2032 2032 2032 2032 2032 2032 2032 2032 2032 
2032 2032 2032 2032 2032 2032 2032 2032 2032 
2032 2032 2032 2032 2032 2032 2032 2032 2032 
2032 2032 2032 2032 2032 2032 2032 2032 2032 
2032 2032 2032 2032 2032 2032 2032 2032 2032 
2032 2032 2032 2032 2032 2032 2032 2032 2032 
2032 2032 2032 2032 2032 2032 2032 2032 2032 
2032 2032 2032 2032 2032 2032 2032 2032 2032 
2032 2032 2032 2032 2032 2032 2032 2032 2032 
2032 2032 2032 2032 2032 2032 2032 2032 2032 
2032 2032 2032 2032 2032 2032 2032 2032 2032 
2032 2032 2032 2032 2032 2032 2032 2032 2032 
2032 2032 2032 2032 2032 2032 2032 2032 2032 
2032 2032 2032 2032 2032 2032 2032 2032 2032 
2032 2032 2032 2032 2032 2032 2032 2032 2032 
2032 2032 2032 2032 2032 2032 2032 2032 2032 
2032 2032 2032 2032 2032 2032 2032 2032 2032 
2032 2032 2032 2032 2032 2032 2032 2032 2032 
2032 2032 2032 2032 2032 2032 2032 2032 2032 
2032 2032 2032 2032 2032 2032 2032 2032 2032 
2032 2032 2032 2032 2032 2032 2032 2032 2032 
2032 2032 2032 2032 2032 2032 2032 2032 2032 
2032 2032 2032 2032 2032 2032 2032 2032 2032 
2032 2032 2032 2032 2032 2032 2032 2032 2032 
2032 2032 2032 2032 2032 2032 2032 2032 2032 
2032 2032 2032 2032 2032 2032 2032 2032 2032 
2032 2032 2032 2032 2032 2032 2032 2032 2032 
2032 2032 2032 2032 2032 2032 2032 2032 2032 
2032 2032 2032 2032 2032 2032 2032 2032 2032 
2032 2032 2032 2032 2032 2032 2032 2032 2032 
2032 2032 2032 2032 2032 2032 2032 2032 2032 
2032 2032 2032 2032 2032 2032 2032 2032 2032 
2032 2032 2032 2032 2032 2032 2032 2032 2032 
2032 2032 2032 2032 2032 2032 2032 2032 2032 
2032 2032 2032 2032 2032 2032 2032 2032 2032 
2032 2032 2032 2032 2032 2032 2032 2032 2032 
2032 2032 2032 2032 2032 2032 2032 2032 2032 
2032 2032 2032 2032 2032 2032 2032 2032 2032 
2032 2032 2032 2032 2032 2032 2032 2032 2032 
2032 2032 2032 2032 2032 2032 2032 2032 2032 
2032 2032 2032 2032 2032 2032 2032 2032 2032 
2032 2032 2032 2032 2032 2032 2032 2032 2032 
2032 2032 2032 2032 2032 2032 2032 2032 2032 
2032 2032 2032 2032 2032 2032 2032 2032 2032 
2032 2032 2032 2032 2032 2032 2032 2032 2032 
2032 2032 2032 2032 2032 2032 2032 2032 2032 
2032 2032 2032 2032 2032 2032 2032 2032 2032 
2032 2032 2032 2032 2032 2032 2032 2032 2032 
2032 2032 2032 2032 2032 2032 2032 2032 2032 
2032 2032 2032 2032 2032 2032 2032 2032 2032 
2032 2032 2032 2032 2032 2032 2032 2032 2032 
2032 2032 2032 2032 2032 2032 2032 2032 2032 
2032 2032 2032 2032 2032 2032 2032 2032 2032 
2032 2032 2032 2032 2032 2032 2032 2032 2032 
2032 2032 2032 2032 2032 2032 2032 2032 2032 
2032 2032 2032 2032 2032 2032 2032 2032 2032 
2032 2032 2032 2032 2032 2032 2032 2032 2032 
2032 2032 2032 2032 2032 2032 2032 2032 2032 
2032 2032 2032 2032 2032 2032 2032 2032 2032 
2032 2032 2032 2032 2032 2032 2032 2032 2032 
2032 2032 2032 2032 2032 2032 2032 2032 2032 
2032 2032 2032 2032 2032 2032 2032 2032 2032 
2032 2032 2032 2032 2032 2032 2032 2032 2032 
2032 2032 2032 2032 2032 2032 2032 2032 2032 
2032 2032 2032 2032 2032 2032 2032 2032 2032 
2032 2032 2032 2032 2032 2032 2032 2032 2032 
2032 2032 2032 2032 2032 2032 2032 2032 2032 
2032 2032 2032 2032 2032 2032 2032 2032 2032 
2032 2032 2032 2032 2032 2032 2032 2032 2032 
2032 2032 2032 2032 2032 2032 2032 2032 2032 
2032 2032 2032 2032 2032 2032 2032 2032 2032 
2032 2032 2032 2032 2032 2032 2032 2032 2032 
2032 2032 2032 2032 2032 2032 2032 2032 2032 
2032 2032 2032 2032 2032 2032 2032 2032 2032 
2032 2032 2032 2032 2032 2032 2032 2032 2032 
2032 2032 2032 2032 2032 2032 2032 2032 2032 
2032 2032 2032 2032 2032 2032 2032 2032 2032 
2032 2032 2032 2032 2032 2032 2032 2032 2032 
2032 2032 2032 2032 2032 2032 2032 2032 2032 
2032 2032 2032 2032 2032 2032 2032 2032 2032 
2032 2032 2032 2032 2032 2032 2032 2032 2032 
2032 2032 2032 2032 2032 2032 2032 2032 2032 
2032 2032 2032 2032 2032 2032 2032 2032 2032 
2032 2032 2032 2032 2032 2032 2032 2032 2032 
2032 2032 2032 2032 2032 2032 2032 2032 2032 
2032 2032 2032 2032 2032 2032 2032 2032 2032 
2032 2032 2032 2032 2032 2032 2032 2032 2032 
2032 2032 2032 2032 2032 2032 2032 2032 2032 
2032 2032 2032 2032 2032 2032 2032 2032 2032 
2032 2032 2032 2032 2032 2032 2032 2032 2032 
2032 2032 2032 2032 2032 2032 2032 2032 2032 
2032 2032 2032 2032 2032 2032 2032 2032 2032 
2032 2032 2032 2032 2032 2032 2032 2032 2032 
2032 2032 2032 2032 2032 2032 2032 2032 2032 
2032 2032 2032 2032 2032 2032 2032 2032 2032 
2032 2032 2032 2032 2032 2032 2032 2032 2032 
2032 2032 2032 2032 2032 2032 2032 2032 2032 
2032 2032 2032 2032 2032 2032 2032 2032 2032 
2032 2032 2032 2032 2032 2032 2032 2032 2032 
2032 2032 2032 2032 2032 2032 2032 2032 2032 
2032 2032 2032 2032 2032 2032 2032 2032 2032 
2032 2032 2032 2032 2032 2032 2032 2032 2032 
2032 2032 2032 2032 2032 2032 2032 2032 2032 
2032 2032 2032 2032 2032 2032 2032 2032 2032 
2032 2032 2032 2032 2032 2032 2032 2032 2032 
2032 2032 2032 2032 2032 2032 2032 2032 2032 
2032 2032 2032 2032 2032 2032 2032 2032 2032 
2032 2032 2032 2032 2032 2032 2032 2032 2032 
2032 2032 2032 2032 2032 2032 2032 2032 2032 
2032 2032 2032 2032 2032 2032 2032 2032 2032 
2032 2032 2032 2032 2032 2032 2032 2032 2032 
2032 2032 2032 2032 2032 2032 2032 2032 2032 
2032 2032 2032 2032 2032 2032 2032 2032 2032 
2032 2032 2032 2032 2032 2032 2032 2032 2032 
2032 2032 2032 2032 2032 2032 2032 2032 2032 
2032 2032 2032 2032 2032 2032 2032 2032 2032 
2032 2032 2032 2032 2032 2032 2032 2032 2032 
2032 2032 2032 2032 2032 2032 2032 2032 2032 
2032 2032 2032 2032 2032 2032 2032 2032 2032 
2032 2032 2032 2032 2032 2032 2032 2032 2032 
2032 2032 2032 2032 2032 2032 2032 2032 2032 
2032 2032 2032 2032 2032 2032 2032 2032 2032 
2032 2032 2032 2032 2032 2032 2032 2032 2032 
2032 2032 2032 2032 2032 2032 2032 2032 2032 
2032 2032 2032 2032 2032 2032 2032 2032 2032 
2032 2032 2032 2032 2032 2032 2032 2032 2032 
2032 2032 2032 2032 2032 2032 2032 2032 2032 
2032 2032 2032 2032 2032 2032 2032 2032 2032 
2032 2032 2032 2032 2032 2032 2032 2032 2032 
2032 2032 2032 2032 2032 2032 2032 2032 2032 
2032 2032 2032 2032 2032 2032 2032 2032 2032 
2032 2032 2032 2032 2032 2032 2032 2032 2032 
2032 2032 2032 2032 2032 2032 2032 2032 2032 
2032 2032 2032 2032 2032 2032 2032 2032 2032 
2032 2032 2032 2032 2032 2032 2032 2032 2032 
2032 2032 2032 2032 2032 2032 2032 2032 2032 
2032 2032 2032 2032 2032 2032 2032 2032 2032 
2032 2032 2032 2032 2032 2032 2032 2032 2032 
2032 2032 2032 2032 2032 2032 2032 2032 2032 
2032 2032 2032 2032 2032 2032 2032 2032 2032 
2032 2032 2032 2032 2032 2032 2032 2032 2032 
2032 2032 2032 2032 2032 2032 2032 2032 2032 
2032 2032 2032 2032 2032 2032 2032 2032 2032 
2032 2032 2032 2032 2032 2032 2032 2032 2032 
2032 2032 2032 2032 2032 2032 2032 2032 2032 
2032 2032 2032 2032 2032 2032 2032 2032 2032 
2032 2032 2032 2032 2032 2032 2032 2032 2032 
2032 2032 2032 2032 2032 2032 2032 2032 2032 
2032 2032 2032 2032 2032 2032 2032 2032 2032 
2032 2032 2032 2032 2032 2032 2032 2032 2032 
2032 2032 2032 2032 2032 2032 2032 2032 2032 
2032 2032 2032 2032 2032 2032 2032 2032 2032 
2032 2032 2032 2032 2032 2032 2032 2032 2032 
2032 2032 2032 2032 2032 2032 2032 2032 2032 
2032 2032 2032 2032 2032 2032 2032 2032 2032 
2032 2032 2032 2032 2032 2032 2032 2032 2032 
2032 2032 2032 2032 2032 2032 2032 2032 2032 
2032 2032 2032 2032 2032 2032 2032 2032 2032 
2032 2032 2032 2032 2032 2032 2032 2032 2032 
2032 2032 2032 2032 2032 2032 2032 2032 2032 
2032 2032 2032 2032 2032 2032 2032 2032 2032 
2032 2032 2032 2032 2032 2032 2032 2032 2032 
2032 2032 2032 2032 2032 2032 2032 2032 2032 
2032 2032 2032 2032 2032 2032 2032 2032 2032 
2032 2032 2032 2032 2032 2032 2032 2032 2032 
2032 2032 2032 2032 2032 2032 2032 2032 2032 
2032 2032 2032 2032 2032 2032 2032 2032 2032 
2032 2032 2032 2032 2032 2032 2032 2032 2032 
2032 2032 2032 2032 2032 2032 2032 2032 2032 
2032 2032 2032 2032 2032 2032 2032 2032 2032 
2032 2032 2032 2032 2032 2032 2032 2032 2032 
2032 2032 2032 2032 2032 2032 2032 2032 2032 
2032 2032 2032 2032 2032 2032 2032 2032 2032 
2032 2032 2032 2032 2032 2032 2032 2032 2032 
2032 2032 2032 2032 2032 2032 2032 2032 2032 
2032 2032 2032 2032 2032 2032 2032 2032 2032 
2032 2032 2032 2032 2032 2032 2032 2032 2032 
2032 2032 2032 2032 2032 2032 2032 2032 2032 
2032 2032 2032 2032 2032 2032 2032 2032 2032 
2032 2032 2032 2032 2032 2032 2032 2032 2032 
2032 2032 2032 2032 2032 2032 2032 2032 2032 
2032 2032 2032 2032 2032 2032 2032 2032 2032 
2032 2032 2032 2032 2032 2032 2032 2032 2032 
2032 2032 2032 2032 2032 2032 2032 2032 2032 
2032 2032 2032 2032 2032 2032 2032 2032 2032 
2032 2032 2032 2032 2032 2032 2032 2032 2032 
2032 2032 2032 2032 2032 2032 2032 2032 2032 
2032 2032 2032 2032 2032 2032 2032 2032 2032 
2032 2032 2032 2032 2032 2032 2032 2032 2032 
2032 2032 2032 2032 2032 2032 2032 2032 2032 
2032 2032 2032 2032 2032 2032 2032 2032 2032 
2032 2032 2032 2032 2032 2032 2032 2032 2032 
2032 2032 2032 2032 2032 2032 2032 2032 2032 
2032 2032 2032 2032 2032 2032 2032 2032 2032 
2032 2032 2032 2032 2032 2032 2032 2032 2032 
2032 2032 2032 2032 2032 2032 2032 2032 2032 
2032 2032 2032 2032 2032 2032 2032 2032 2032 
2032 2032 2032 2032 2032 2032 2032 2032 2032 
2032 2032 2032 2032 2032 2032 2032 2032 2032 
2032 2032 2032 2032 2032 2032 2032 2032 2032 
2032 2032 2032 2032 2032 2032 2032 2032 2032 
2032 2032 2032 2032 2032 2032 2032 2032 2032 
2032 2032 2032 2032 2032 2032 2032 2032 2032 
2032 2032 2032 2032 2032 2032 2032 2032 2032 
2032 2032 2032 2032 2032 2032 2032 2032 2032 
2032 2032 2032 2032 2032 2032 2032 2032 2032 
2032 2032 2032 2032 2032 2032 2032 2032 2032 
2032 2032 2032 2032 2032 2032 2032 2032 2032 
2032 2032 2032 2032 2032 2032 2032 2032 2032 
2032 2032 2032 2032 2032 2032 2032 2032 2032 
2032 2032 2032 2032 2032 2032 2032 2032 2032 
2032 2032 2032 2032 2032 2032 2032 2032 2032 
2032 2032 2032 2032 2032 2032 2032 2032 2032 
2032 2032 2032 2032 2032 2032 2032 2032 2032 
2032 2032 2032 2032 2032 2032 2032 2032 2032 
2032 2032 2032 2032 2032 2032 2032 2032 2032 
2032 2032 2032 2032 2032 2032 2032 2032 2032 
2032 2032 2032 2032 2032 2032 2032 2032 2032 
2032 2032 2032 2032 2032 2032 2032 2032 2032 
2032 2032 2032 2032 2032 2032 2032 2032 2032 
2032 2032 2032 2032 2032 2032 2032 2032 2032 
2032 2032 2032 2032 2032 2032 2032 2032 2032 
2032 2032 2032 2032 2032 2032 2032 2032 2032 
2032 2032 2032 2032 2032 2032 2032 2032 2032 
2032 2032 2032 2032 2032 2032 2032 2032 2032 
2032 2032 2032 2032 2032 2032 2032 2032 2032 
2032 2032 2032 2032 2032 2032 2032 2032 2032 
2032 2032 2032 2032 2032 2032 2032 2032 2032 
2032 2032 2032 2032 2032 2032 2032 2032 2032 
2032 2032 2032 2032 2032 2032 2032 2032 2032 
2032 2032 2032 2032 2032 2032 2032 2032 2032 
2032 2032 2032 2032 2032 2032 2032 2032 2032 
2032 2032 2032 2032 2032 2032 2032 2032 2032 
2032 2032 2032 2032 2032 2032 2032 2032 2032 
2032 2032 2032 2032 2032 2032 2032 2032 2032 
2032 2032 2032 2032 2032 2032 2032 2032 2032 
2032 2032 2032 2032 2032 2032 2032 2032 2032 
2032 2032 
