# vtk DataFile Version 4.0
vtk output
ASCII
DATASET POLYDATA
POINTS 28858 float
16.0537 71.7984 -4.27322 16.1489 71.5127 -3.6611 16.577 71.6435 -4.1085 
15.6581 71.2929 -3.72176 16.6567 71.8891 -4.96093 17.1719 71.4706 -4.5353 
17.4782 71.529 -5.35747 15.9718 71.9111 -5.15331 15.4782 71.3132 -4.81756 
16.8354 71.946 -6.05489 17.5184 71.5469 -6.33558 15.9246 72.0068 -6.07581 
15.4574 71.4664 -5.86499 16.8455 71.8771 -6.97686 17.383 71.5445 -6.97871 
16.1411 72.1081 -6.85743 15.1368 71.5673 -6.54546 15.3121 71.861 -7.16521 
14.708 71.1832 -7.11754 17.0874 71.4509 -7.54379 16.4062 71.4833 -8.24128 
16.0842 71.8348 -7.72094 15.3441 71.3574 -8.1243 14.8779 71.3557 -7.65288 
15.8786 71.3781 -8.50236 19.0262 70.8018 6.67716 19.1127 70.5119 7.27525 
19.559 70.6552 6.82831 18.6043 70.2912 7.23686 19.7123 70.7966 6.21007 
20.1587 70.4641 6.42123 20.2355 70.4523 5.80557 19.1825 70.8274 5.96718 
18.6104 70.3161 6.16113 19.629 70.5646 5.48411 18.9678 70.4065 5.42981 
16.8682 70.8184 -3.06617 17.0031 70.1698 -2.61196 17.5492 70.5647 -3.12862 
16.0702 71.0616 -3.15864 15.9735 70.4004 -2.63335 15.4177 70.4482 -3.14506 
17.8583 70.8319 -3.90985 18.1701 70.4591 -3.56994 18.6144 70.5563 -4.1799 
16.9298 71.2219 -3.81485 15.2916 70.569 -4.05125 18.7016 70.8135 -4.99167 
19.2125 70.4413 -4.63406 19.4884 70.505 -5.38836 17.8304 71.1384 -4.77068 
15.0345 70.5877 -4.63974 15.0429 70.7267 -5.16393 14.7212 70.0894 -5.10157 
18.9236 70.799 -5.99775 19.4808 70.5112 -5.99469 18.1702 71.1414 -5.77863 
15.183 70.7708 -5.74955 14.8756 70.2744 -5.62129 19.1611 70.4036 -6.54702 
18.5438 70.5156 -7.05036 18.0853 71.026 -6.80522 14.7705 70.5765 -6.43969 
14.3117 70.2589 -7.18768 18.0342 70.5593 -7.55768 17.0172 71.0703 -8.23909 
17.6012 70.3701 -8.38327 14.9499 71.0084 -8.06651 14.5819 70.4865 -7.98145 
16.9246 70.8387 -9.00984 17.2832 70.2815 -9.03224 16.02 71.0469 -9.07372 
15.3927 70.7739 -8.86839 15.0291 70.6651 -8.46987 16.79 70.3898 -9.53734 
16.2845 70.3978 -9.97882 16.2203 70.8475 -9.76735 15.0646 70.6042 -9.39718 
15.0032 70.8559 -10.0497 13.6985 70.8411 -10.3412 14.2454 70.4859 -9.63699 
13.4625 70.1506 -10.026 15.7579 70.6285 -10.2312 15.1114 70.4477 -10.6787 
14.4734 70.3376 -11.2696 14.113 70.8396 -10.8099 13.0019 70.6316 -10.6902 
13.1774 70.7942 -11.0058 12.7866 70.5502 -11.0964 13.6854 70.5114 -11.3017 
13.1303 70.3704 -11.3307 11.9992 70.2597 -11.6786 12.5247 70.3113 -12.006 
12.0166 70.7042 -11.9975 11.5509 70.3223 -12.1356 12.155 70.3641 -12.2834 
22.8568 69.8413 7.77881 23.1253 69.4622 8.35925 23.603 69.5813 7.85372 
21.7908 69.8799 7.87325 22.282 69.535 8.5164 20.7327 69.8811 7.89355 
21.1067 69.4283 8.51622 19.7813 69.8538 8.0331 19.9445 69.3667 8.40674 
19.058 70.039 7.82139 18.9712 69.3809 8.36237 18.3834 69.5525 7.93997 
23.6928 69.835 7.04753 24.1991 69.4533 7.42232 24.4568 69.4917 6.66256 
22.8747 70.0127 6.85152 22.0423 70.0052 6.99699 21.1787 70.0236 7.18665 
20.0495 70.2025 7.21716 18.2677 69.5531 6.92554 23.8604 69.8074 6.05133 
24.3585 69.4378 5.90211 23.0143 70.0226 6.00601 22.0219 70.0303 5.9687 
20.896 70.1189 6.12922 18.4014 69.5601 5.9941 23.8403 69.6007 5.37388 
23.5437 69.5458 4.6031 23.0492 69.9132 5.00353 22.0176 70.0263 4.94959 
20.983 70.0175 4.93893 20.0113 70.1558 4.93932 19.0768 70.0432 4.75363 
18.5539 69.5905 5.1975 22.9558 69.781 4.15304 23.3386 69.5228 4.00661 
22.2143 69.8893 4.07672 21.181 69.8922 4.05265 20.045 69.9228 3.90425 
19.0916 69.8907 3.89324 18.5483 69.3756 4.15433 22.8974 69.404 3.52062 
21.7018 69.5461 3.41272 20.6769 69.5536 3.40548 19.8708 69.6367 3.23841 
19.5345 69.3929 2.83647 19.1825 69.7706 3.16508 18.4468 69.3683 3.25002 
18.8089 69.2091 2.63245 18.9133 69.808 -3.1258 19.0878 69.4451 -2.68165 
19.6003 69.56 -3.18198 18.0559 70.1547 -3.04433 18.0788 69.6176 -2.49216 
16.9531 69.3718 -2.32506 15.9191 69.5276 -2.44322 14.9791 69.7803 -3.14315 
15.16 69.7368 -2.65515 14.6577 69.1784 -3.08001 19.7386 69.7987 -3.8294 
20.1955 69.4567 -3.6163 20.4854 69.5117 -4.38063 18.9586 70.1736 -3.8662 
15.2793 69.4678 -4.07843 14.8304 69.3605 -3.60505 19.8865 70.0212 -4.77268 
20.5737 69.3358 -5.34688 14.949 69.8291 -4.54867 14.6995 69.4365 -5.22321 
19.9511 70.0191 -5.84293 20.3227 69.2749 -6.06529 14.9024 70.1953 -6.02924 
14.5246 69.6855 -5.99211 19.7985 69.6386 -6.54769 19.0273 70.0181 -7.06672 
19.4849 69.2006 -7.05389 13.9326 69.6976 -7.24077 14.0654 69.7388 -6.76324 
13.7875 69.4578 -7.07635 18.7917 69.6522 -7.53898 18.2093 69.9452 -7.97128 
18.4757 69.2001 -8.01468 14.1974 69.5241 -7.8776 14.1101 69.257 -7.42349 
17.8825 69.4603 -8.41149 17.3972 69.5815 -8.84919 14.6444 70.2229 -8.92416 
14.1492 69.6327 -8.60001 13.9716 69.9578 -9.20753 13.6938 69.3951 -9.1644 
20.7377 69.8312 -10.0842 21.1471 69.4742 -9.61317 21.4962 69.5211 -10.3088 
19.7966 69.9224 -10.0904 20.1633 69.44 -9.44196 18.8477 69.8568 -10.2235 
19.1117 69.4255 -9.66788 18.4448 69.3789 -9.91891 16.8921 69.5957 -9.32432 
16.3011 69.7164 -9.75102 15.8027 70.0289 -10.2487 15.7633 69.2799 -10.0624 
13.3584 69.2795 -9.80045 20.8977 69.8873 -10.9947 21.5408 69.5101 -11.3001 
20.0472 70.05 -10.9408 19.0586 70.0564 -10.9684 17.9713 69.4797 -10.3336 
17.9456 69.9315 -11.0047 16.8319 69.8214 -11.2843 17.1205 69.4092 -10.7172 
16.4331 69.345 -11.0102 15.457 69.5234 -10.903 15.1623 70.1036 -11.3115 
13.1018 70.1577 -10.9716 13.3348 69.5563 -10.6686 20.8785 69.8781 -12.0351 
21.4965 69.5145 -12.3187 20.0296 70.042 -11.9896 19.043 70.048 -11.9951 
18.0401 70.0308 -11.9961 17.0134 70.0292 -12.0305 15.9743 69.4552 -11.322 
15.8534 69.9434 -11.8858 14.7264 69.8861 -12.0661 13.8129 69.753 -11.5076 
14.2764 69.4597 -12.0553 13.0362 69.8007 -12.0017 12.784 69.759 -11.617 
13.2969 69.4043 -11.8837 12.1848 69.5414 -11.305 10.7278 69.9342 -12.2512 
11.3408 69.597 -11.6715 10.6164 69.3031 -12.181 20.9775 69.7673 -12.8082 
21.38 69.5046 -12.9542 20.0851 69.9096 -13.0329 18.9709 70.0333 -13.0529 
17.9584 70.0242 -13.0585 16.9749 70.0319 -13.0581 15.9757 70.0535 -13.0471 
15.1426 70.0203 -12.9001 14.195 69.5136 -12.4787 14.3467 69.76 -13.1647 
12.8443 69.6067 -12.4495 13.7893 69.3836 -12.9022 11.713 69.4774 -12.6327 
11.1351 69.9493 -12.8037 11.3391 69.5435 -13.0621 9.83627 69.4088 -12.4145 
10.0629 69.8731 -12.9033 9.15621 69.7624 -13.1616 9.13141 69.5788 -12.7372 
8.62627 69.231 -13.1149 20.9243 69.3749 -13.4496 19.8728 69.6195 -13.7245 
19.4373 69.5474 -14.0743 18.9892 69.8633 -13.9529 17.9426 70.0242 -14.06 
16.9416 70.0315 -14.0799 15.9244 70.0496 -14.1011 14.9622 69.9468 -13.9742 
14.3631 69.5449 -13.988 13.8016 69.1649 -13.4915 10.7056 69.5078 -13.2835 
9.79439 69.5773 -13.4285 9.05822 69.2892 -13.6177 19.0634 69.4296 -14.5582 
18.4465 69.5467 -15.0589 18.146 69.8312 -14.7928 17.1964 69.899 -14.9235 
16.0348 69.9336 -15.0755 15.0677 69.9108 -15.0751 14.5508 69.4518 -14.8066 
17.927 69.4087 -15.4595 16.6728 69.5646 -15.5825 15.8083 69.6444 -15.7429 
15.3212 69.4983 -16.266 15.1527 69.7848 -15.8411 14.5746 69.31 -15.8981 
14.8257 69.3944 -16.522 24.6651 68.7961 9.83995 25.0647 68.4474 10.341 
25.4438 68.5269 9.65364 23.7863 68.822 9.74701 24.0945 68.3425 10.5006 
23.4057 68.3822 10.0252 24.9976 68.8915 8.8771 25.7039 68.58 8.87169 
24.1521 69.0324 9.1769 22.8949 68.4499 9.6061 23.0079 69.0477 9.02776 
21.7282 69.0297 9.01513 21.9497 68.3877 9.38833 20.8624 68.868 8.9615 
20.9918 68.3698 9.30797 20.3188 68.3451 9.0869 25.6752 68.8159 7.99292 
26.2155 68.449 8.35848 26.4587 68.5133 7.60307 24.9835 69.0076 8.01482 
24.1026 69.1855 8.21874 19.9813 68.62 8.71629 18.9275 68.5193 8.55938 
17.8599 68.9672 7.74071 18.1408 68.7167 8.37506 17.6108 68.2931 8.04999 
25.8841 68.7982 7.03273 26.4632 68.5137 7.03257 24.9619 69.1189 7.2717 
17.9727 68.87 6.91866 17.3905 68.2312 7.14531 26.1401 68.397 6.48531 
25.5667 68.4921 5.64426 25.0673 68.9985 6.11804 18.4274 68.7908 5.91867 
18.1581 68.204 6.32554 24.87 68.8745 4.95223 25.4793 68.5135 4.70761 
24.257 69.224 5.15478 18.495 68.7531 4.78841 24.9856 68.754 4.17451 
25.4105 68.508 4.0651 24.0614 69.0755 4.07842 18.2734 68.5296 4.03724 
24.9632 68.3778 3.55534 23.8001 68.7319 3.27879 23.0743 68.8765 2.99356 
23.5573 68.3984 2.84657 22.2617 69.0369 2.92845 21.2532 69.0403 2.92306 
20.2987 69.1129 2.91307 17.9291 68.717 3.31782 18.0576 68.9816 2.80604 
17.6123 68.2135 3.03049 22.8208 68.304 2.61881 21.7777 68.389 2.58906 
20.7607 68.3668 2.59297 19.6777 68.5914 2.54259 18.9159 68.5832 2.4005 
18.1686 68.459 2.38146 20.7067 68.8258 -2.12146 20.9492 68.5387 -1.63247 
21.4383 68.4761 -2.20487 19.8691 68.8593 -1.98856 20.2882 68.517 -1.49222 
18.8918 69.0335 -2.10915 19.2718 68.5202 -1.48533 17.7215 69.0242 -2.01485 
18.1107 68.4222 -1.50878 16.8949 68.8347 -2.08068 17.0718 68.3755 -1.72582 
16.4004 68.3012 -1.96484 28.8622 68.8565 -3.17743 29.1258 68.4682 -2.60415 
29.6064 68.5743 -3.12162 27.7649 68.9374 -3.09561 28.2754 68.5504 -2.44387 
26.8029 68.8766 -3.26862 27.0848 68.3662 -2.45779 26.4132 68.4044 -2.92499 
21.0361 68.8707 -2.86693 21.571 68.3856 -3.34647 20.0654 69.1688 -2.80537 
15.989 68.6139 -2.31447 15.0366 68.7889 -2.629 14.5499 68.3239 -3.03056 
29.8258 68.8447 -4.0286 30.1987 68.4391 -3.55741 30.6102 68.5471 -4.15991 
28.8777 69.0083 -4.1019 28.0055 69.0552 -3.96176 27.0003 69.0804 -4.01752 
25.9256 68.3915 -3.39886 26.1289 68.8772 -4.07976 25.4757 68.3983 -4.0028 
20.8993 69.0453 -3.77166 21.3837 68.5196 -4.23212 14.9305 69.0737 -4.03355 
14.567 68.5617 -3.7002 30.6899 68.8129 -4.94783 31.1774 68.4066 -4.61147 
31.4503 68.4708 -5.35475 29.8862 68.999 -5.1099 29.0433 69.0056 -4.9717 
28.0157 69.0301 -4.97972 26.9925 69.0473 -5.01996 26.1161 68.929 -5.01271 
25.4776 68.5563 -4.77237 21.0463 68.961 -4.76091 21.3322 68.1951 -4.92791 
15.76 68.9453 -5.08906 16.5326 68.3727 -5.36482 16.0161 68.3405 -4.66306 
15.0068 68.4909 -4.27951 15.1083 69.2328 -4.9057 30.8849 68.8638 -6.00602 
31.5253 68.4964 -6.30073 30.0374 69.0137 -5.97353 29.0361 69.0122 -6.0058 
27.9732 69.0085 -6.02025 26.934 69.0127 -6.06775 26.0707 68.8905 -6.04926 
25.462 68.5432 -5.77845 20.9898 68.5954 -5.40941 20.5604 68.4032 -5.96658 
[...]
CELL_DATA 57860
SCALARS scalars float
LOOKUP_TABLE default
2027 2027 2027 2027 2027 2027 2027 2027 2027 
2027 2027 2027 2027 2027 2027 2027 2027 2027 
2027 2027 2027 2027 2027 2027 2027 2027 2027 
2027 2027 2027 2027 2027 2027 2027 2027 2027 
2027 2027 2027 2027 2027 2027 2027 2027 2027 
2027 2027 2027 2027 2027 2027 2027 2027 2027 
2027 2027 2027 2027 2027 2027 2027 2027 2027 
2027 2027 2027 2027 2027 2027 2027 2027 2027 
2027 2027 2027 2027 2027 2027 2027 2027 2027 
2027 2027 2027 2027 2027 2027 2027 2027 2027 
2027 2027 2027 2027 2027 2027 2027 2027 2027 
2027 2027 2027 2027 2027 2027 2027 2027 2027 
2027 2027 2027 2027 2027 2027 2027 2027 2027 
2027 2027 2027 2027 2027 2027 2027 2027 2027 
2027 2027 2027 2027 2027 2027 2027 2027 2027 
2027 2027 2027 2027 2027 2027 2027 2027 2027 
2027 2027 2027 2027 2027 2027 2027 2027 2027 
2027 2027 2027 2027 2027 2027 2027 2027 2027 
2027 2027 2027 2027 2027 2027 2027 2027 2027 
2027 2027 2027 2027 2027 2027 2027 2027 2027 
2027 2027 2027 2027 2027 2027 2027 2027 2027 
2027 2027 2027 2027 2027 2027 2027 2027 2027 
2027 2027 2027 2027 2027 2027 2027 2027 2027 
2027 2027 2027 2027 2027 2027 2027 2027 2027 
2027 2027 2027 2027 2027 2027 2027 2027 2027 
2027 2027 2027 2027 2027 2027 2027 2027 2027 
2027 2027 2027 2027 2027 2027 2027 2027 2027 
2027 2027 2027 2027 2027 2027 2027 2027 2027 
2027 2027 2027 2027 2027 2027 2027 2027 2027 
2027 2027 2027 2027 2027 2027 2027 2027 2027 
2027 2027 2027 2027 2027 2027 2027 2027 2027 
2027 2027 2027 2027 2027 2027 2027 2027 2027 
2027 2027 2027 2027 2027 2027 2027 2027 2027 
2027 2027 2027 2027 2027 2027 2027 2027 2027 
2027 2027 2027 2027 2027 2027 2027 2027 2027 
2027 2027 2027 2027 2027 2027 2027 2027 2027 
2027 2027 2027 2027 2027 2027 2027 2027 2027 
2027 2027 2027 2027 2027 2027 2027 2027 2027 
2027 2027 2027 2027 2027 2027 2027 2027 2027 
2027 2027 2027 2027 2027 2027 2027 2027 2027 
2027 2027 2027 2027 2027 2027 2027 2027 2027 
2027 2027 2027 2027 2027 2027 2027 2027 2027 
2027 2027 2027 2027 2027 2027 2027 2027 2027 
2027 2027 2027 2027 2027 2027 2027 2027 2027 
2027 2027 2027 2027 2027 2027 2027 2027 2027 
2027 2027 2027 2027 2027 2027 2027 2027 2027 
2027 2027 2027 2027 2027 2027 2027 2027 2027 
2027 2027 2027 2027 2027 2027 2027 2027 2027 
2027 2027 2027 2027 2027 2027 2027 2027 2027 
2027 2027 2027 2027 2027 2027 2027 2027 2027 
2027 2027 2027 2027 2027 2027 2027 2027 2027 
2027 2027 2027 2027 2027 2027 2027 2027 2027 
2027 2027 2027 2027 2027 2027 2027 2027 2027 
2027 2027 2027 2027 2027 2027 2027 2027 2027 
2027 2027 2027 2027 2027 2027 2027 2027 2027 
2027 2027 2027 2027 2027 2027 2027 2027 2027 
2027 2027 2027 2027 2027 2027 2027 2027 2027 
2027 2027 2027 2027 2027 2027 2027 2027 2027 
2027 2027 2027 2027 2027 2027 2027 2027 2027 
2027 2027 2027 2027 2027 2027 2027 2027 2027 
2027 2027 2027 2027 2027 2027 2027 2027 2027 
2027 2027 2027 2027 2027 2027 2027 2027 2027 
2027 2027 2027 2027 2027 2027 2027 2027 2027 
2027 2027 2027 2027 2027 2027 2027 2027 2027 
2027 2027 2027 2027 2027 2027 2027 2027 2027 
2027 2027 2027 2027 2027 2027 2027 2027 2027 
2027 2027 2027 2027 2027 2027 2027 2027 2027 
2027 2027 2027 2027 2027 2027 2027 2027 2027 
2027 2027 2027 2027 2027 2027 2027 2027 2027 
2027 2027 2027 2027 2027 2027 2027 2027 2027 
2027 2027 2027 2027 2027 2027 2027 2027 2027 
2027 2027 2027 2027 2027 2027 2027 2027 2027 
2027 2027 2027 2027 2027 2027 2027 2027 2027 
2027 2027 2027 2027 2027 2027 2027 2027 2027 
2027 2027 2027 2027 2027 2027 2027 2027 2027 
2027 2027 2027 2027 2027 2027 2027 2027 2027 
2027 2027 2027 2027 2027 2027 2027 2027 2027 
2027 2027 2027 2027 2027 2027 2027 2027 2027 
2027 2027 2027 2027 2027 2027 2027 2027 2027 
2027 2027 2027 2027 2027 2027 2027 2027 2027 
2027 2027 2027 2027 2027 2027 2027 2027 2027 
2027 2027 2027 2027 2027 2027 2027 2027 2027 
2027 2027 2027 2027 2027 2027 2027 2027 2027 
2027 2027 2027 2027 2027 2027 2027 2027 2027 
2027 2027 2027 2027 2027 2027 2027 2027 2027 
2027 2027 2027 2027 2027 2027 2027 2027 2027 
2027 2027 2027 2027 2027 2027 2027 2027 2027 
2027 2027 2027 2027 2027 2027 2027 2027 2027 
2027 2027 2027 2027 2027 2027 2027 2027 2027 
2027 2027 2027 2027 2027 2027 2027 2027 2027 
2027 2027 2027 2027 2027 2027 2027 2027 2027 
2027 2027 2027 2027 2027 2027 2027 2027 2027 
2027 2027 2027 2027 2027 2027 2027 2027 2027 
2027 2027 2027 2027 2027 2027 2027 2027 2027 
2027 2027 2027 2027 2027 2027 2027 2027 2027 
2027 2027 2027 2027 2027 2027 2027 2027 2027 
2027 2027 2027 2027 2027 2027 2027 2027 2027 
2027 2027 2027 2027 2027 2027 2027 2027 2027 
2027 2027 2027 2027 2027 2027 2027 2027 2027 
2027 2027 2027 2027 2027 2027 2027 2027 2027 
2027 2027 2027 2027 2027 2027 2027 2027 2027 
2027 2027 2027 2027 2027 2027 2027 2027 2027 
2027 2027 2027 2027 2027 2027 2027 2027 2027 
2027 2027 2027 2027 2027 2027 2027 2027 2027 
2027 2027 2027 2027 2027 2027 2027 2027 2027 
2027 2027 2027 2027 2027 2027 2027 2027 2027 
2027 2027 2027 2027 2027 2027 2027 2027 2027 
2027 2027 2027 2027 2027 2027 2027 2027 2027 
2027 2027 2027 2027 2027 2027 2027 2027 2027 
2027 2027 2027 2027 2027 2027 2027 2027 2027 
2027 2027 2027 2027 2027 2027 2027 2027 2027 
2027 2027 2027 2027 2027 2027 2027 2027 2027 
2027 2027 2027 2027 2027 2027 2027 2027 2027 
2027 2027 2027 2027 2027 2027 2027 2027 2027 
2027 2027 2027 2027 2027 2027 2027 2027 2027 
2027 2027 2027 2027 2027 2027 2027 2027 2027 
2027 2027 2027 2027 2027 2027 2027 2027 2027 
2027 2027 2027 2027 2027 2027 2027 2027 2027 
2027 2027 2027 2027 2027 2027 2027 2027 2027 
2027 2027 2027 2027 2027 2027 2027 2027 2027 
2027 2027 2027 2027 2027 2027 2027 2027 2027 
2027 2027 2027 2027 2027 2027 2027 2027 2027 
2027 2027 2027 2027 2027 2027 2027 2027 2027 
2027 2027 2027 2027 2027 2027 2027 2027 2027 
2027 2027 2027 2027 2027 2027 2027 2027 2027 
2027 2027 2027 2027 2027 2027 2027 2027 2027 
2027 2027 2027 2027 2027 2027 2027 2027 2027 
2027 2027 2027 2027 2027 2027 2027 2027 2027 
2027 2027 2027 2027 2027 2027 2027 2027 2027 
2027 2027 2027 2027 2027 2027 2027 2027 2027 
2027 2027 2027 2027 2027 2027 2027 2027 2027 
2027 2027 2027 2027 2027 2027 2027 2027 2027 
2027 2027 2027 2027 2027 2027 2027 2027 2027 
2027 2027 2027 2027 2027 2027 2027 2027 2027 
2027 2027 2027 2027 2027 2027 2027 2027 2027 
2027 2027 2027 2027 2027 2027 2027 2027 2027 
2027 2027 2027 2027 2027 2027 2027 2027 2027 
2027 2027 2027 2027 2027 2027 2027 2027 2027 
2027 2027 2027 2027 2027 2027 2027 2027 2027 
2027 2027 2027 2027 2027 2027 2027 2027 2027 
2027 2027 2027 2027 2027 2027 2027 2027 2027 
2027 2027 2027 2027 2027 2027 2027 2027 2027 
2027 2027 2027 2027 2027 2027 2027 2027 2027 
2027 2027 2027 2027 2027 2027 2027 2027 2027 
2027 2027 2027 2027 2027 2027 2027 2027 2027 
2027 2027 2027 2027 2027 2027 2027 2027 2027 
2027 2027 2027 2027 2027 2027 2027 2027 2027 
2027 2027 2027 2027 2027 2027 2027 2027 2027 
2027 2027 2027 2027 2027 2027 2027 2027 2027 
2027 2027 2027 2027 2027 2027 2027 2027 2027 
2027 2027 2027 2027 2027 2027 2027 2027 2027 
2027 2027 2027 2027 2027 2027 2027 2027 2027 
2027 2027 2027 2027 2027 2027 2027 2027 2027 
2027 2027 2027 2027 2027 2027 2027 2027 2027 
2027 2027 2027 2027 2027 2027 2027 2027 2027 
2027 2027 2027 2027 2027 2027 2027 2027 2027 
2027 2027 2027 2027 2027 2027 2027 2027 2027 
2027 2027 2027 2027 2027 2027 2027 2027 2027 
2027 2027 2027 2027 2027 2027 2027 2027 2027 
2027 2027 2027 2027 2027 2027 2027 2027 2027 
2027 2027 2027 2027 2027 2027 2027 2027 2027 
2027 2027 2027 2027 2027 2027 2027 2027 2027 
2027 2027 2027 2027 2027 2027 2027 2027 2027 
2027 2027 2027 2027 2027 2027 2027 2027 2027 
2027 2027 2027 2027 2027 2027 2027 2027 2027 
2027 2027 2027 2027 2027 2027 2027 2027 2027 
2027 2027 2027 2027 2027 2027 2027 2027 2027 
2027 2027 2027 2027 2027 2027 2027 2027 2027 
2027 2027 2027 2027 2027 2027 2027 2027 2027 
2027 2027 2027 2027 2027 2027 2027 2027 2027 
2027 2027 2027 2027 2027 2027 2027 2027 2027 
2027 2027 2027 2027 2027 2027 2027 2027 2027 
2027 2027 2027 2027 2027 2027 2027 2027 2027 
2027 2027 2027 2027 2027 2027 2027 2027 2027 
2027 2027 2027 2027 2027 2027 2027 2027 2027 
2027 2027 2027 2027 2027 2027 2027 2027 2027 
2027 2027 2027 2027 2027 2027 2027 2027 2027 
2027 2027 2027 2027 2027 2027 2027 2027 2027 
2027 2027 2027 2027 2027 2027 2027 2027 2027 
2027 2027 2027 2027 2027 2027 2027 2027 2027 
2027 2027 2027 2027 2027 2027 2027 2027 2027 
2027 2027 2027 2027 2027 2027 2027 2027 2027 
2027 2027 2027 2027 2027 2027 2027 2027 2027 
2027 2027 2027 2027 2027 2027 2027 2027 2027 
2027 2027 2027 2027 2027 2027 2027 2027 2027 
2027 2027 2027 2027 2027 2027 2027 2027 2027 
2027 2027 2027 2027 2027 2027 2027 2027 2027 
2027 2027 2027 2027 2027 2027 2027 2027 2027 
2027 2027 2027 2027 2027 2027 2027 2027 2027 
2027 2027 2027 2027 2027 2027 2027 2027 2027 
2027 2027 2027 2027 2027 2027 2027 2027 2027 
2027 2027 2027 2027 2027 2027 2027 2027 2027 
2027 2027 2027 2027 2027 2027 2027 2027 2027 
2027 2027 2027 2027 2027 2027 2027 2027 2027 
2027 2027 2027 2027 2027 2027 2027 2027 2027 
2027 2027 2027 2027 2027 2027 2027 2027 2027 
2027 2027 2027 2027 2027 2027 2027 2027 2027 
2027 2027 2027 2027 2027 2027 2027 2027 2027 
2027 2027 2027 2027 2027 2027 2027 2027 2027 
2027 2027 2027 2027 2027 2027 2027 2027 2027 
2027 2027 2027 2027 2027 2027 2027 2027 2027 
2027 2027 2027 2027 2027 2027 2027 2027 2027 
2027 2027 2027 2027 2027 2027 2027 2027 2027 
2027 2027 2027 2027 2027 2027 2027 2027 2027 
2027 2027 2027 2027 2027 2027 2027 2027 2027 
2027 2027 2027 2027 2027 2027 2027 2027 2027 
2027 2027 2027 2027 2027 2027 2027 2027 2027 
2027 2027 2027 2027 2027 2027 2027 2027 2027 
2027 2027 2027 2027 2027 2027 2027 2027 2027 
2027 2027 2027 2027 2027 2027 2027 2027 2027 
2027 2027 2027 2027 2027 2027 2027 2027 2027 
2027 2027 2027 2027 2027 2027 2027 2027 2027 
2027 2027 2027 2027 2027 2027 2027 2027 2027 
2027 2027 2027 2027 2027 2027 2027 2027 2027 
2027 2027 2027 2027 2027 2027 2027 2027 2027 
2027 2027 2027 2027 2027 2027 2027 2027 2027 
2027 2027 2027 2027 2027 2027 2027 2027 2027 
2027 2027 2027 2027 2027 2027 2027 2027 2027 
2027 2027 2027 2027 2027 2027 2027 2027 2027 
2027 2027 2027 2027 2027 2027 2027 2027 2027 
2027 2027 2027 2027 2027 2027 2027 2027 2027 
2027 2027 2027 2027 2027 2027 2027 2027 2027 
2027 2027 2027 2027 2027 2027 2027 2027 2027 
2027 2027 2027 2027 2027 2027 2027 2027 2027 
2027 2027 2027 2027 2027 2027 2027 2027 2027 
2027 2027 2027 2027 2027 2027 2027 2027 2027 
2027 2027 2027 2027 2027 2027 2027 2027 2027 
2027 2027 2027 2027 2027 2027 2027 2027 2027 
2027 2027 2027 2027 2027 2027 2027 2027 2027 
2027 2027 2027 2027 2027 2027 2027 2027 2027 
2027 2027 2027 2027 2027 2027 2027 2027 2027 
2027 2027 2027 2027 2027 2027 2027 2027 2027 
2027 2027 2027 2027 2027 2027 2027 2027 2027 
2027 2027 2027 2027 2027 2027 2027 2027 2027 
2027 2027 2027 2027 2027 2027 2027 2027 2027 
2027 2027 2027 2027 2027 2027 2027 2027 2027 
2027 2027 2027 2027 2027 2027 2027 2027 2027 
2027 2027 2027 2027 2027 2027 2027 2027 2027 
2027 2027 2027 2027 2027 2027 2027 2027 2027 
2027 2027 2027 2027 2027 2027 2027 2027 2027 
2027 2027 2027 2027 2027 2027 2027 2027 2027 
2027 2027 2027 2027 2027 2027 2027 2027 2027 
2027 2027 2027 2027 2027 2027 2027 2027 2027 
2027 2027 2027 2027 2027 2027 2027 2027 2027 
2027 2027 2027 2027 2027 2027 2027 2027 2027 
2027 2027 2027 2027 2027 2027 2027 2027 2027 
2027 2027 2027 2027 2027 2027 2027 2027 2027 
2027 2027 2027 2027 2027 2027 2027 2027 2027 
2027 2027 2027 2027 2027 2027 2027 2027 2027 
2027 2027 2027 2027 2027 2027 2027 2027 2027 
2027 2027 2027 2027 2027 2027 2027 2027 2027 
2027 2027 2027 2027 2027 2027 2027 2027 2027 
2027 2027 2027 2027 2027 2027 2027 2027 2027 
2027 2027 2027 2027 2027 2027 2027 2027 2027 
2027 2027 2027 2027 2027 2027 2027 2027 2027 
2027 2027 2027 2027 2027 2027 2027 2027 2027 
2027 2027 2027 2027 2027 2027 2027 2027 2027 
2027 2027 2027 2027 2027 2027 2027 2027 2027 
2027 2027 2027 2027 2027 2027 2027 2027 2027 
2027 2027 2027 2027 2027 2027 2027 2027 2027 
2027 2027 2027 2027 2027 2027 2027 2027 2027 
2027 2027 2027 2027 2027 2027 2027 2027 2027 
2027 2027 2027 2027 2027 2027 2027 2027 2027 
2027 2027 2027 2027 2027 2027 2027 2027 2027 
2027 2027 2027 2027 2027 2027 2027 2027 2027 
2027 2027 2027 2027 2027 2027 2027 2027 2027 
2027 2027 2027 2027 2027 2027 2027 2027 2027 
2027 2027 2027 2027 2027 2027 2027 2027 2027 
2027 2027 2027 2027 2027 2027 2027 2027 2027 
2027 2027 2027 2027 2027 2027 2027 2027 2027 
2027 2027 2027 2027 2027 2027 2027 2027 2027 
2027 2027 2027 2027 2027 2027 2027 2027 2027 
2027 2027 2027 2027 2027 2027 2027 2027 2027 
2027 2027 2027 2027 2027 2027 2027 2027 2027 
2027 2027 2027 2027 2027 2027 2027 2027 2027 
2027 2027 2027 2027 2027 2027 2027 2027 2027 
2027 2027 2027 2027 2027 2027 2027 2027 2027 
2027 2027 2027 2027 2027 2027 2027 2027 2027 
2027 2027 2027 2027 2027 2027 2027 2027 2027 
2027 2027 2027 2027 2027 2027 2027 2027 2027 
2027 2027 2027 2027 2027 2027 2027 2027 2027 
2027 2027 2027 2027 2027 2027 2027 2027 2027 
2027 2027 2027 2027 2027 2027 2027 2027 2027 
2027 2027 2027 2027 2027 2027 2027 2027 2027 
2027 2027 2027 2027 2027 2027 2027 2027 2027 
2027 2027 2027 2027 2027 2027 2027 2027 2027 
2027 2027 2027 2027 2027 2027 2027 2027 2027 
2027 2027 2027 2027 2027 2027 2027 2027 2027 
2027 2027 2027 2027 2027 2027 2027 2027 2027 
2027 2027 2027 2027 2027 2027 2027 2027 2027 
2027 2027 2027 2027 2027 2027 2027 2027 2027 
2027 2027 2027 2027 2027 2027 2027 2027 2027 
2027 2027 2027 2027 2027 2027 2027 2027 2027 
2027 2027 2027 2027 2027 2027 2027 2027 2027 
2027 2027 2027 2027 2027 2027 2027 2027 2027 
2027 2027 2027 2027 2027 2027 2027 2027 2027 
2027 2027 2027 2027 2027 2027 2027 2027 2027 
2027 2027 2027 2027 2027 2027 2027 2027 2027 
2027 2027 2027 2027 2027 2027 2027 2027 2027 
2027 2027 2027 2027 2027 2027 2027 2027 2027 
2027 2027 2027 2027 2027 2027 2027 2027 2027 
2027 2027 2027 2027 2027 2027 2027 2027 2027 
2027 2027 2027 2027 2027 2027 2027 2027 2027 
2027 2027 2027 2027 2027 2027 2027 2027 2027 
2027 2027 2027 2027 2027 2027 2027 2027 2027 
2027 2027 2027 2027 2027 2027 2027 2027 2027 
2027 2027 2027 2027 2027 2027 2027 2027 2027 
2027 2027 2027 2027 2027 2027 2027 2027 2027 
2027 2027 2027 2027 2027 2027 2027 2027 2027 
2027 2027 2027 2027 2027 2027 2027 2027 2027 
2027 2027 2027 2027 2027 2027 2027 2027 2027 
2027 2027 2027 2027 2027 2027 2027 2027 2027 
2027 2027 2027 2027 2027 2027 2027 2027 2027 
2027 2027 2027 2027 2027 2027 2027 2027 2027 
2027 2027 2027 2027 2027 2027 2027 2027 2027 
2027 2027 2027 2027 2027 2027 2027 2027 2027 
2027 2027 2027 2027 2027 2027 2027 2027 2027 
2027 2027 2027 2027 2027 2027 2027 2027 2027 
2027 2027 2027 2027 2027 2027 2027 2027 2027 
2027 2027 2027 2027 2027 2027 2027 2027 2027 
2027 2027 2027 2027 2027 2027 2027 2027 2027 
2027 2027 2027 2027 2027 2027 2027 2027 2027 
2027 2027 2027 2027 2027 2027 2027 2027 2027 
2027 2027 2027 2027 2027 2027 2027 2027 2027 
2027 2027 2027 2027 2027 2027 2027 2027 2027 
2027 2027 2027 2027 2027 2027 2027 2027 2027 
2027 2027 2027 2027 2027 2027 2027 2027 2027 
2027 2027 2027 2027 2027 2027 2027 2027 2027 
2027 2027 2027 2027 2027 2027 2027 2027 2027 
2027 2027 2027 2027 2027 2027 2027 2027 2027 
2027 2027 2027 2027 2027 2027 2027 2027 2027 
2027 2027 2027 2027 2027 2027 2027 2027 2027 
2027 2027 2027 2027 2027 2027 2027 2027 2027 
2027 2027 2027 2027 2027 2027 2027 2027 2027 
2027 2027 2027 2027 2027 2027 2027 2027 2027 
2027 2027 2027 2027 2027 2027 2027 2027 2027 
2027 2027 2027 2027 2027 2027 2027 2027 2027 
2027 2027 2027 2027 2027 2027 2027 2027 2027 
2027 2027 2027 2027 2027 2027 2027 2027 2027 
2027 2027 2027 2027 2027 2027 2027 2027 2027 
2027 2027 2027 2027 2027 2027 2027 2027 2027 
2027 2027 2027 2027 2027 2027 2027 2027 2027 
2027 2027 2027 2027 2027 2027 2027 2027 2027 
2027 2027 2027 2027 2027 2027 2027 2027 2027 
2027 2027 2027 2027 2027 2027 2027 2027 2027 
2027 2027 2027 2027 2027 2027 2027 2027 2027 
2027 2027 2027 2027 2027 2027 2027 2027 2027 
2027 2027 2027 2027 2027 2027 2027 2027 2027 
2027 2027 2027 2027 2027 2027 2027 2027 2027 
2027 2027 2027 2027 2027 2027 2027 2027 2027 
2027 2027 2027 2027 2027 2027 2027 2027 2027 
2027 2027 2027 2027 2027 2027 2027 2027 2027 
2027 2027 2027 2027 2027 2027 2027 2027 2027 
2027 2027 2027 2027 2027 2027 2027 2027 2027 
2027 2027 2027 2027 2027 2027 2027 2027 2027 
2027 2027 2027 2027 2027 2027 2027 2027 2027 
2027 2027 2027 2027 2027 2027 2027 2027 2027 
2027 2027 2027 2027 2027 2027 2027 2027 2027 
2027 2027 2027 2027 2027 2027 2027 2027 2027 
2027 2027 2027 2027 2027 2027 2027 2027 2027 
2027 2027 2027 2027 2027 2027 2027 2027 2027 
2027 2027 2027 2027 2027 2027 2027 2027 2027 
2027 2027 2027 2027 2027 2027 2027 2027 2027 
2027 2027 2027 2027 2027 2027 2027 2027 2027 
2027 2027 2027 2027 2027 2027 2027 2027 2027 
2027 2027 2027 2027 2027 2027 2027 2027 2027 
2027 2027 2027 2027 2027 2027 2027 2027 2027 
2027 2027 2027 2027 2027 2027 2027 2027 2027 
2027 2027 2027 2027 2027 2027 2027 2027 2027 
2027 2027 2027 2027 2027 2027 2027 2027 2027 
2027 2027 2027 2027 2027 2027 2027 2027 2027 
2027 2027 2027 2027 2027 2027 2027 2027 2027 
2027 2027 2027 2027 2027 2027 2027 2027 2027 
2027 2027 2027 2027 2027 2027 2027 2027 2027 
2027 2027 2027 2027 2027 2027 2027 2027 2027 
2027 2027 2027 2027 2027 2027 2027 2027 2027 
2027 2027 2027 2027 2027 2027 2027 2027 2027 
2027 2027 2027 2027 2027 2027 2027 2027 2027 
2027 2027 2027 2027 2027 2027 2027 2027 2027 
2027 2027 2027 2027 2027 2027 2027 2027 2027 
2027 2027 2027 2027 2027 2027 2027 2027 2027 
2027 2027 2027 2027 2027 2027 2027 2027 2027 
2027 2027 2027 2027 2027 2027 2027 2027 2027 
2027 2027 2027 2027 2027 2027 2027 2027 2027 
2027 2027 2027 2027 2027 2027 2027 2027 2027 
2027 2027 2027 2027 2027 2027 2027 2027 2027 
2027 2027 2027 2027 2027 2027 2027 2027 2027 
2027 2027 2027 2027 2027 2027 2027 2027 2027 
2027 2027 2027 2027 2027 2027 2027 2027 2027 
2027 2027 2027 2027 2027 2027 2027 2027 2027 
2027 2027 2027 2027 2027 2027 2027 2027 2027 
2027 2027 2027 2027 2027 2027 2027 2027 2027 
2027 2027 2027 2027 2027 2027 2027 2027 2027 
2027 2027 2027 2027 2027 2027 2027 2027 2027 
2027 2027 2027 2027 2027 2027 2027 2027 2027 
2027 2027 2027 2027 2027 2027 2027 2027 2027 
2027 2027 2027 2027 2027 2027 2027 2027 2027 
2027 2027 2027 2027 2027 2027 2027 2027 2027 
2027 2027 2027 2027 2027 2027 2027 2027 2027 
2027 2027 2027 2027 2027 2027 2027 2027 2027 
2027 2027 2027 2027 2027 2027 2027 2027 2027 
2027 2027 2027 2027 2027 2027 2027 2027 2027 
2027 2027 2027 2027 2027 2027 2027 2027 2027 
2027 2027 2027 2027 2027 2027 2027 2027 2027 
2027 2027 2027 2027 2027 2027 2027 2027 2027 
2027 2027 2027 2027 2027 2027 2027 2027 2027 
2027 2027 2027 2027 2027 2027 2027 2027 2027 
2027 2027 2027 2027 2027 2027 2027 2027 2027 
2027 2027 2027 2027 2027 2027 2027 2027 2027 
2027 2027 2027 2027 2027 2027 2027 2027 2027 
2027 2027 2027 2027 2027 2027 2027 2027 2027 
2027 2027 2027 2027 2027 2027 2027 2027 2027 
2027 2027 2027 2027 2027 2027 2027 2027 2027 
2027 2027 2027 2027 2027 2027 2027 2027 2027 
2027 2027 2027 2027 2027 2027 2027 2027 2027 
2027 2027 2027 2027 2027 2027 2027 2027 2027 
2027 2027 2027 2027 2027 2027 2027 2027 2027 
2027 2027 2027 2027 2027 2027 2027 2027 2027 
2027 2027 2027 2027 2027 2027 2027 2027 2027 
2027 2027 2027 2027 2027 2027 2027 2027 2027 
2027 2027 2027 2027 2027 2027 2027 2027 2027 
2027 2027 2027 2027 2027 2027 2027 2027 2027 
2027 2027 2027 2027 2027 2027 2027 2027 2027 
2027 2027 2027 2027 2027 2027 2027 2027 2027 
2027 2027 2027 2027 2027 2027 2027 2027 2027 
2027 2027 2027 2027 2027 2027 2027 2027 2027 
2027 2027 2027 2027 2027 2027 2027 2027 2027 
2027 2027 2027 2027 2027 2027 2027 2027 2027 
2027 2027 2027 2027 2027 2027 2027 2027 2027 
2027 2027 2027 2027 2027 2027 2027 2027 2027 
2027 2027 2027 2027 2027 2027 2027 2027 2027 
2027 2027 2027 2027 2027 2027 2027 2027 2027 
2027 2027 2027 2027 2027 2027 2027 2027 2027 