# vtk DataFile Version 4.0
vtk output
ASCII
DATASET POLYDATA
POINTS 19620 float
-53.2831 5.77854 34.8727 -52.8567 5.41674 35.3639 -52.5162 5.48195 34.685 
-54.1864 5.80586 34.7461 -53.6201 5.48817 35.4459 -54.397 5.45693 35.1619 
-53.0996 5.85793 34.0108 -52.4318 5.4828 33.7227 -54.0095 6.02376 34.0107 
-54.9601 5.59877 34.6405 -55.1387 5.92123 33.9464 -56.0339 5.77005 33.6903 
-55.9571 5.3372 34.462 -56.5475 5.27801 33.8042 -53.1095 5.851 32.9868 
-52.4572 5.48234 32.7038 -53.9801 6.03855 33.0136 -55 6.05886 32.9507 
-55.8775 5.90102 32.937 -56.3677 5.54339 33.1083 -53.1313 5.85765 31.9482 
-52.4797 5.47815 31.6934 -54.027 6.0375 31.9574 -55.0371 6.04282 31.8982 
-55.8934 5.88516 31.9227 -56.5063 5.36224 32.222 -53.126 5.78282 31.0111 
-52.6546 5.42188 30.851 -53.9924 6.01541 30.9517 -55.024 6.03179 30.8756 
-55.918 5.87838 30.9043 -56.5538 5.5209 31.1751 -53.157 5.5538 30.344 
-53.6058 5.43484 29.7475 -53.8207 5.79392 30.1799 -54.7799 5.88344 30.0244 
-55.7354 5.7986 30.0264 -56.5037 5.52269 30.2369 -54.3596 5.49834 29.4395 
-55.3065 5.48872 29.3824 -56.1435 5.42154 29.576 -53.1613 4.82425 36.7696 
-52.9279 4.43919 37.3518 -52.4012 4.55631 36.8419 -54.2223 4.79831 36.7225 
-53.9258 4.31516 37.5131 -54.5875 4.38029 37.0913 -52.1063 4.79663 36.0517 
-51.8011 4.42634 36.4042 -51.3817 4.53115 35.7906 -52.9499 5.13333 35.907 
-54.0428 5.14359 35.9252 -55.0845 4.32446 36.576 -55.1027 4.8312 35.8581 
-55.6443 4.31406 36.0447 -51.3216 4.7887 35.0222 -50.804 4.40894 35.3486 
-50.5508 4.46018 34.6099 -52.1638 5.11193 35.2361 -55.0714 5.23243 35.1199 
-56.1223 4.28262 35.5872 -55.8315 4.90992 35.1295 -56.5913 4.51419 34.9851 
-51.1128 4.8302 33.9545 -50.4903 4.4771 33.6844 -51.8265 5.11335 34.2751 
-56.9705 4.75527 33.791 -56.8955 4.75938 34.407 -57.3282 4.12734 34.0728 
-51.1054 4.837 32.9673 -50.4691 4.48674 32.7025 -51.8085 5.11006 33.2648 
-56.7395 4.84864 33.0427 -57.0874 4.32023 33.3682 -51.1043 4.83965 31.9661 
-50.4674 4.4757 31.6992 -51.8312 5.11682 32.2513 -57.0991 4.39119 32.4221 
-57.1794 4.94174 31.5786 -57.5572 4.32095 31.9919 -51.1312 4.76576 31.0134 
-50.6191 4.42374 30.8752 -51.9767 5.09292 31.0905 -57.1866 5.17569 30.6222 
-58.0533 4.33242 31.5699 -57.8978 4.8254 30.875 -58.5212 4.35624 30.9891 
-51.1377 4.56955 30.3321 -51.4277 4.51619 29.5802 -51.9532 4.87082 29.9753 
-52.8887 5.17935 29.9661 -56.9646 5.11057 29.6356 -57.8976 4.88975 29.9486 
-58.538 4.5155 30.2289 -52.0539 4.74234 29.1166 -51.6455 4.49297 28.9987 
-52.9216 4.88822 28.9204 -53.8086 5.13239 29.0856 -54.7371 4.99471 28.749 
-55.9124 4.97114 29.0205 -56.8366 4.79896 28.9407 -57.6959 4.77253 29.084 
-58.4675 4.49427 29.2868 -52.0869 4.35754 28.5035 -53.112 4.59703 28.2124 
-53.4736 4.34989 27.8345 -53.8887 4.75421 28.2572 -54.578 4.52995 28.1 
-55.3212 4.48814 28.3498 -56.2886 4.46651 28.4454 -57.3119 4.47433 28.4464 
-58.1384 4.41518 28.5977 -54.1772 4.14276 27.6586 -52.1045 3.78736 37.8346 
-51.9315 3.41488 38.3048 -51.4311 3.54126 37.8257 -53.1331 3.99996 37.9019 
-52.7943 3.48927 38.4728 -53.9621 3.88578 38.0392 -53.9698 3.29176 38.52 
-54.5593 3.51023 38.0165 -50.1676 3.78652 36.7089 -49.8714 3.40347 37.2659 
-49.3813 3.52621 36.7703 -51.2252 3.83962 37.1666 -50.6728 3.47128 37.5234 
-52.0772 4.17324 37.1131 -55.01 4.02196 37.0051 -54.8468 3.77952 37.4378 
-55.4523 3.25742 36.9159 -49.3134 3.71469 36.0479 -48.8114 3.39357 36.3833 
-48.697 3.42822 35.9443 -50.01 3.97063 35.9694 -50.926 4.14309 36.1608 
-56.0684 3.97396 35.9588 -55.8451 3.7457 36.261 -56.3117 3.64137 35.875 
-45.1752 3.86238 34.7793 -44.8368 3.44489 35.3698 -44.3447 3.58666 34.8673 
-46.2975 3.89638 34.8758 -45.7302 3.51194 35.5105 -47.1947 3.83603 34.9537 
-46.7522 3.51475 35.4998 -47.7912 3.70693 34.7116 -47.6843 3.47445 35.4043 
-49.0035 3.43869 35.4441 -48.2724 3.36562 35.1135 -49.428 3.43369 34.6396 
-49.971 3.96421 35.2601 -57.1588 4.08656 34.8049 -56.7295 3.5323 35.3559 
-57.3365 3.35241 34.6269 -43.7761 3.43573 34.4509 -43.5128 3.5145 33.6724 
-44.3222 3.85456 34.0597 -45.1784 4.04797 33.8616 -46.0362 4.05864 33.9702 
-47.0541 3.92019 34.0828 -47.7283 3.56898 34.0298 -48.2056 3.38015 34.5287 
-50.0009 3.96651 34.2294 -49.5164 3.40497 33.7448 -57.5393 3.46333 33.9802 
-43.9917 3.91334 32.8507 -43.2939 3.60869 32.887 -44.8338 4.02292 33.1568 
-45.8652 3.93957 32.8439 -46.8594 3.89416 32.9611 -47.5264 3.38173 33.033 
-49.9953 3.96377 33.267 -49.504 3.25973 32.7263 -57.002 4.21666 32.9191 
-57.5155 3.53715 33.219 -43.3006 3.8488 31.9906 -42.9427 3.53247 32.4718 
-42.5614 3.45702 31.7782 -43.9782 4.01199 31.9141 -44.7917 3.85617 32.0187 
-45.6527 3.57434 32.1229 -46.2555 3.59661 32.2255 -46.6834 3.42688 31.7767 
-46.828 3.73555 32.1815 -47.3401 3.36259 31.9818 -49.9805 3.98081 32.2566 
-49.6696 3.45931 31.8348 -57.9801 3.98554 31.9678 -57.9828 3.46844 32.4432 
-58.5112 3.50058 31.9607 -42.9839 3.75128 31.1243 -42.608 3.45113 30.805 
-43.825 3.83431 31.1413 -44.5924 3.55733 31.0967 -45.2168 3.42063 31.5467 
-47.1392 3.33404 31.5131 -50.0791 3.99007 31.1057 -49.6387 3.31824 30.957 
-59.0574 3.94318 30.6562 -59.0441 3.47725 31.4778 -59.5621 3.35149 30.9678 
-43.2817 3.50351 30.4554 -44.0875 3.44039 30.5486 -50.0939 3.76564 30.0438 
-49.6399 3.10424 29.877 -50.6928 4.20889 30.1343 -59.0455 4.01824 29.7087 
-59.5633 3.4946 30.2176 -50.112 3.5263 29.3532 -50.4324 3.49148 28.9234 
-50.9199 4.00079 29.156 -58.8946 3.99606 28.6387 -59.5351 3.5014 29.2035 
-50.9748 3.46478 28.429 -51.9139 3.8214 28.0005 -51.4861 3.44194 27.9359 
-52.7199 4.10014 27.8835 -55.0896 4.11476 27.7412 -56.0047 4.11 27.7986 
-57.0192 4.13518 27.7941 -58.1507 4.10371 27.8818 -59.0362 3.82417 27.7569 
-59.5498 3.48002 28.1778 -52.0468 3.36155 27.5256 -53.3016 3.66889 27.4084 
-54.2 3.49303 27.2481 -54.9632 3.6652 27.2737 -55.4395 3.31281 26.8691 
-55.8122 3.78629 27.1866 -56.7216 3.84099 27.0821 -57.7429 3.86053 27.0461 
-58.7216 3.77876 27.0587 -59.4809 3.46629 27.2404 -56.0926 3.32305 26.6543 
-57.1432 3.38529 26.4158 -58.3094 3.50799 26.4169 -59.1373 3.41875 26.5827 
-57.9554 3.3289 18.0968 -57.8661 3.3186 17.8747 -58.0453 3.65056 17.9385 
-58.1915 3.30964 18.034 -58.1022 3.29934 17.8119 -50.185 2.79969 38.7568 
-50.0738 2.47431 39.3384 -49.4981 2.4671 38.9827 -51.1513 2.81885 38.9929 
-50.7294 2.46733 39.4613 -52.1367 3.00273 38.8872 -51.7442 2.49227 39.4852 
-53.3086 3.01038 38.9908 -52.9276 2.40727 39.4643 -53.9732 2.87258 38.9893 
-53.812 2.49701 39.2508 -54.4507 2.29479 38.9487 -48.1323 2.78467 37.7427 
-48.0553 2.47622 38.3065 -47.4852 2.47111 37.97 -49.1732 2.83115 38.1593 
-48.654 2.46812 38.5318 -49.9915 3.10889 37.862 -51.0755 3.15486 38.3002 
-55.1456 3.06749 37.8011 -54.8908 2.66602 38.3587 -55.3674 2.38788 37.8366 
-46.1795 2.81409 36.7654 -46.0527 2.50012 37.3506 -45.409 2.2575 36.7774 
-47.2695 2.84201 37.0208 -46.642 2.50089 37.5762 -48.0117 2.95611 36.9642 
-48.9126 3.12218 37.1518 -55.5215 2.26798 37.1121 -44.206 2.75041 36.0514 
-44.2051 2.40882 36.1655 -43.7766 2.55167 35.7873 -45.1117 2.99021 36.0767 
-44.7422 2.53937 36.3518 -46.1553 3.16539 36.0158 -47.0332 3.11827 36.1093 
-48.2143 3.16429 36.0141 -56.1049 3.11714 36.008 -55.7014 2.30901 36.1735 
-43.8894 2.97682 35.1751 -43.61 2.37984 35.2204 -48.6974 3.16966 34.8416 
-56.2791 2.62073 35.4534 -56.8641 2.86562 35.0239 -56.5786 2.12614 34.9669 
-43.2192 2.19512 34.4524 -42.7312 2.46185 33.7266 -43.205 2.9793 34.1147 
-48.2511 3.1222 33.8129 -49.0051 3.08782 34.103 -53.2989 2.80033 33.7736 
-52.5561 2.55364 33.7352 -52.8693 2.45896 34.3066 -53.5141 2.20195 33.9851 
-57.2251 2.39245 34.5964 -57.6723 2.64396 34.0212 -42.7906 3.10986 33.0381 
-42.4128 2.34127 33.0519 -48.0195 2.82457 32.8662 -48.8017 2.88524 33.2018 
-53.1688 2.94755 32.9964 -52.4602 2.54057 32.7336 -53.9202 2.62639 33.4188 
-53.9381 2.88797 32.9346 -54.2801 2.30607 32.689 -58.1555 2.30742 33.4824 
-58.0267 2.91925 32.9658 -58.5335 2.44442 32.9406 -42.0251 2.85989 32.0651 
-42.0175 2.11083 32.4149 -41.5116 2.313 31.7472 -45.9558 3.23501 31.6078 
-47.699 2.53833 31.9634 -48.3395 2.36727 32.4048 -48.9933 2.55768 32.5015 
-49.326 2.66707 31.8233 -53.1213 2.93709 31.9416 -52.4629 2.52028 31.682 
-54.0893 2.9777 31.9279 -54.5627 2.43755 32.0814 -59.0359 2.95778 31.9766 
-58.8447 2.70417 32.3897 -59.4562 2.24852 32.084 -41.3055 2.84805 31.06 
-41.0626 2.32964 31.2749 -40.7959 2.58264 30.7597 -42.078 3.17012 30.94 
-44.9595 3.16825 30.816 -45.8106 2.85856 30.7329 -46.7147 2.91001 31.0881 
-47.3365 2.66447 31.1972 -49.3527 2.5645 30.7507 -52.9683 2.79996 31.1454 
-52.5652 2.5056 31.0179 -53.7475 2.93056 31.0553 -55.0529 2.44167 31.4597 
-54.7251 2.82214 31.0028 -55.4728 2.41763 31.0027 -60.0479 2.91864 30.6357 
-59.859 2.68404 31.3273 -60.2998 2.27041 30.9391 -41.0647 2.90103 29.9758 
-40.7009 2.40301 29.8288 -41.9169 3.04632 29.9578 -42.7504 3.17479 30.088 
-43.8598 3.00951 29.8612 -44.9477 2.80419 30.0613 -45.6307 2.31324 29.89 
-46.3401 2.27708 30.3746 -47.0214 2.19132 30.6973 -49.3363 2.44331 29.8265 
-53.0154 2.38654 30.5137 -54.2436 2.58125 30.4055 -55.137 2.50888 30.5722 
-60.0437 2.99091 29.7137 -60.4134 2.32613 30.2209 -40.9304 2.77491 29.1798 
-40.6661 2.44535 29.0278 -41.694 2.90329 29.053 -42.8146 2.85007 29.1168 
-43.6576 2.34242 28.8369 -44.3392 2.5143 29.3404 -45.002 2.37001 29.4389 
-50.0316 3.09045 28.9883 -49.6033 2.52809 29.0201 -60.0441 2.98718 28.6929 
-60.5445 2.33499 29.2271 -41.0581 2.40379 28.4602 -42.2634 2.53558 28.3803 
-43.0448 2.36391 28.3847 -50.2302 2.65291 28.361 -51.0197 2.95185 27.9108 
-50.5513 2.38862 27.7564 -60.0519 2.99284 27.6783 -60.5593 2.496 28.1775 
-51.2366 2.65187 27.352 -51.8973 2.82161 27.0018 -51.4133 2.3467 26.8447 
-52.7285 2.97935 26.9319 -53.7547 2.98368 26.8999 -54.6852 3.03985 26.9016 
-59.8687 2.98275 26.6522 -60.5647 2.50921 27.1967 -52.1662 2.22125 26.5908 
-53.2371 2.31167 26.5731 -54.1446 2.45255 26.6129 -55.0264 2.43828 26.6497 
-56.036 2.52701 26.3244 -57.0656 2.86504 25.8875 -56.5006 2.4776 25.9596 
-58.0526 3.15381 25.8 -59.0387 3.13305 26.0075 -59.7598 2.76481 25.7395 
[...]
CELL_DATA 39276
SCALARS scalars float
LOOKUP_TABLE default
1024 1024 1024 1024 1024 1024 1024 1024 1024 
1024 1024 1024 1024 1024 1024 1024 1024 1024 
1024 1024 1024 1024 1024 1024 1024 1024 1024 
1024 1024 1024 1024 1024 1024 1024 1024 1024 
1024 1024 1024 1024 1024 1024 1024 1024 1024 
1024 1024 1024 1024 1024 1024 1024 1024 1024 
1024 1024 1024 1024 1024 1024 1024 1024 1024 
1024 1024 1024 1024 1024 1024 1024 1024 1024 
1024 1024 1024 1024 1024 1024 1024 1024 1024 
1024 1024 1024 1024 1024 1024 1024 1024 1024 
1024 1024 1024 1024 1024 1024 1024 1024 1024 
1024 1024 1024 1024 1024 1024 1024 1024 1024 
1024 1024 1024 1024 1024 1024 1024 1024 1024 
1024 1024 1024 1024 1024 1024 1024 1024 1024 
1024 1024 1024 1024 1024 1024 1024 1024 1024 
1024 1024 1024 1024 1024 1024 1024 1024 1024 
1024 1024 1024 1024 1024 1024 1024 1024 1024 
1024 1024 1024 1024 1024 1024 1024 1024 1024 
1024 1024 1024 1024 1024 1024 1024 1024 1024 
1024 1024 1024 1024 1024 1024 1024 1024 1024 
1024 1024 1024 1024 1024 1024 1024 1024 1024 
1024 1024 1024 1024 1024 1024 1024 1024 1024 
1024 1024 1024 1024 1024 1024 1024 1024 1024 
1024 1024 1024 1024 1024 1024 1024 1024 1024 
1024 1024 1024 1024 1024 1024 1024 1024 1024 
1024 1024 1024 1024 1024 1024 1024 1024 1024 
1024 1024 1024 1024 1024 1024 1024 1024 1024 
1024 1024 1024 1024 1024 1024 1024 1024 1024 
1024 1024 1024 1024 1024 1024 1024 1024 1024 
1024 1024 1024 1024 1024 1024 1024 1024 1024 
1024 1024 1024 1024 1024 1024 1024 1024 1024 
1024 1024 1024 1024 1024 1024 1024 1024 1024 
1024 1024 1024 1024 1024 1024 1024 1024 1024 
1024 1024 1024 1024 1024 1024 1024 1024 1024 
1024 1024 1024 1024 1024 1024 1024 1024 1024 
1024 1024 1024 1024 1024 1024 1024 1024 1024 
1024 1024 1024 1024 1024 1024 1024 1024 1024 
1024 1024 1024 1024 1024 1024 1024 1024 1024 
1024 1024 1024 1024 1024 1024 1024 1024 1024 
1024 1024 1024 1024 1024 1024 1024 1024 1024 
1024 1024 1024 1024 1024 1024 1024 1024 1024 
1024 1024 1024 1024 1024 1024 1024 1024 1024 
1024 1024 1024 1024 1024 1024 1024 1024 1024 
1024 1024 1024 1024 1024 1024 1024 1024 1024 
1024 1024 1024 1024 1024 1024 1024 1024 1024 
1024 1024 1024 1024 1024 1024 1024 1024 1024 
1024 1024 1024 1024 1024 1024 1024 1024 1024 
1024 1024 1024 1024 1024 1024 1024 1024 1024 
1024 1024 1024 1024 1024 1024 1024 1024 1024 
1024 1024 1024 1024 1024 1024 1024 1024 1024 
1024 1024 1024 1024 1024 1024 1024 1024 1024 
1024 1024 1024 1024 1024 1024 1024 1024 1024 
1024 1024 1024 1024 1024 1024 1024 1024 1024 
1024 1024 1024 1024 1024 1024 1024 1024 1024 
1024 1024 1024 1024 1024 1024 1024 1024 1024 
1024 1024 1024 1024 1024 1024 1024 1024 1024 
1024 1024 1024 1024 1024 1024 1024 1024 1024 
1024 1024 1024 1024 1024 1024 1024 1024 1024 
1024 1024 1024 1024 1024 1024 1024 1024 1024 
1024 1024 1024 1024 1024 1024 1024 1024 1024 
1024 1024 1024 1024 1024 1024 1024 1024 1024 
1024 1024 1024 1024 1024 1024 1024 1024 1024 
1024 1024 1024 1024 1024 1024 1024 1024 1024 
1024 1024 1024 1024 1024 1024 1024 1024 1024 
1024 1024 1024 1024 1024 1024 1024 1024 1024 
1024 1024 1024 1024 1024 1024 1024 1024 1024 
1024 1024 1024 1024 1024 1024 1024 1024 1024 
1024 1024 1024 1024 1024 1024 1024 1024 1024 
1024 1024 1024 1024 1024 1024 1024 1024 1024 
1024 1024 1024 1024 1024 1024 1024 1024 1024 
1024 1024 1024 1024 1024 1024 1024 1024 1024 
1024 1024 1024 1024 1024 1024 1024 1024 1024 
1024 1024 1024 1024 1024 1024 1024 1024 1024 
1024 1024 1024 1024 1024 1024 1024 1024 1024 
1024 1024 1024 1024 1024 1024 1024 1024 1024 
1024 1024 1024 1024 1024 1024 1024 1024 1024 
1024 1024 1024 1024 1024 1024 1024 1024 1024 
1024 1024 1024 1024 1024 1024 1024 1024 1024 
1024 1024 1024 1024 1024 1024 1024 1024 1024 
1024 1024 1024 1024 1024 1024 1024 1024 1024 
1024 1024 1024 1024 1024 1024 1024 1024 1024 
1024 1024 1024 1024 1024 1024 1024 1024 1024 
1024 1024 1024 1024 1024 1024 1024 1024 1024 
1024 1024 1024 1024 1024 1024 1024 1024 1024 
1024 1024 1024 1024 1024 1024 1024 1024 1024 
1024 1024 1024 1024 1024 1024 1024 1024 1024 
1024 1024 1024 1024 1024 1024 1024 1024 1024 
1024 1024 1024 1024 1024 1024 1024 1024 1024 
1024 1024 1024 1024 1024 1024 1024 1024 1024 
1024 1024 1024 1024 1024 1024 1024 1024 1024 
1024 1024 1024 1024 1024 1024 1024 1024 1024 
1024 1024 1024 1024 1024 1024 1024 1024 1024 
1024 1024 1024 1024 1024 1024 1024 1024 1024 
1024 1024 1024 1024 1024 1024 1024 1024 1024 
1024 1024 1024 1024 1024 1024 1024 1024 1024 
1024 1024 1024 1024 1024 1024 1024 1024 1024 
1024 1024 1024 1024 1024 1024 1024 1024 1024 
1024 1024 1024 1024 1024 1024 1024 1024 1024 
1024 1024 1024 1024 1024 1024 1024 1024 1024 
1024 1024 1024 1024 1024 1024 1024 1024 1024 
1024 1024 1024 1024 1024 1024 1024 1024 1024 
1024 1024 1024 1024 1024 1024 1024 1024 1024 
1024 1024 1024 1024 1024 1024 1024 1024 1024 
1024 1024 1024 1024 1024 1024 1024 1024 1024 
1024 1024 1024 1024 1024 1024 1024 1024 1024 
1024 1024 1024 1024 1024 1024 1024 1024 1024 
1024 1024 1024 1024 1024 1024 1024 1024 1024 
1024 1024 1024 1024 1024 1024 1024 1024 1024 
1024 1024 1024 1024 1024 1024 1024 1024 1024 
1024 1024 1024 1024 1024 1024 1024 1024 1024 
1024 1024 1024 1024 1024 1024 1024 1024 1024 
1024 1024 1024 1024 1024 1024 1024 1024 1024 
1024 1024 1024 1024 1024 1024 1024 1024 1024 
1024 1024 1024 1024 1024 1024 1024 1024 1024 
1024 1024 1024 1024 1024 1024 1024 1024 1024 
1024 1024 1024 1024 1024 1024 1024 1024 1024 
1024 1024 1024 1024 1024 1024 1024 1024 1024 
1024 1024 1024 1024 1024 1024 1024 1024 1024 
1024 1024 1024 1024 1024 1024 1024 1024 1024 
1024 1024 1024 1024 1024 1024 1024 1024 1024 
1024 1024 1024 1024 1024 1024 1024 1024 1024 
1024 1024 1024 1024 1024 1024 1024 1024 1024 
1024 1024 1024 1024 1024 1024 1024 1024 1024 
1024 1024 1024 1024 1024 1024 1024 1024 1024 
1024 1024 1024 1024 1024 1024 1024 1024 1024 
1024 1024 1024 1024 1024 1024 1024 1024 1024 
1024 1024 1024 1024 1024 1024 1024 1024 1024 
1024 1024 1024 1024 1024 1024 1024 1024 1024 
1024 1024 1024 1024 1024 1024 1024 1024 1024 
1024 1024 1024 1024 1024 1024 1024 1024 1024 
1024 1024 1024 1024 1024 1024 1024 1024 1024 
1024 1024 1024 1024 1024 1024 1024 1024 1024 
1024 1024 1024 1024 1024 1024 1024 1024 1024 
1024 1024 1024 1024 1024 1024 1024 1024 1024 
1024 1024 1024 1024 1024 1024 1024 1024 1024 
1024 1024 1024 1024 1024 1024 1024 1024 1024 
1024 1024 1024 1024 1024 1024 1024 1024 1024 
1024 1024 1024 1024 1024 1024 1024 1024 1024 
1024 1024 1024 1024 1024 1024 1024 1024 1024 
1024 1024 1024 1024 1024 1024 1024 1024 1024 
1024 1024 1024 1024 1024 1024 1024 1024 1024 
1024 1024 1024 1024 1024 1024 1024 1024 1024 
1024 1024 1024 1024 1024 1024 1024 1024 1024 
1024 1024 1024 1024 1024 1024 1024 1024 1024 
1024 1024 1024 1024 1024 1024 1024 1024 1024 
1024 1024 1024 1024 1024 1024 1024 1024 1024 
1024 1024 1024 1024 1024 1024 1024 1024 1024 
1024 1024 1024 1024 1024 1024 1024 1024 1024 
1024 1024 1024 1024 1024 1024 1024 1024 1024 
1024 1024 1024 1024 1024 1024 1024 1024 1024 
1024 1024 1024 1024 1024 1024 1024 1024 1024 
1024 1024 1024 1024 1024 1024 1024 1024 1024 
1024 1024 1024 1024 1024 1024 1024 1024 1024 
1024 1024 1024 1024 1024 1024 1024 1024 1024 
1024 1024 1024 1024 1024 1024 1024 1024 1024 
1024 1024 1024 1024 1024 1024 1024 1024 1024 
1024 1024 1024 1024 1024 1024 1024 1024 1024 
1024 1024 1024 1024 1024 1024 1024 1024 1024 
1024 1024 1024 1024 1024 1024 1024 1024 1024 
1024 1024 1024 1024 1024 1024 1024 1024 1024 
1024 1024 1024 1024 1024 1024 1024 1024 1024 
1024 1024 1024 1024 1024 1024 1024 1024 1024 
1024 1024 1024 1024 1024 1024 1024 1024 1024 
1024 1024 1024 1024 1024 1024 1024 1024 1024 
1024 1024 1024 1024 1024 1024 1024 1024 1024 
1024 1024 1024 1024 1024 1024 1024 1024 1024 
1024 1024 1024 1024 1024 1024 1024 1024 1024 
1024 1024 1024 1024 1024 1024 1024 1024 1024 
1024 1024 1024 1024 1024 1024 1024 1024 1024 
1024 1024 1024 1024 1024 1024 1024 1024 1024 
1024 1024 1024 1024 1024 1024 1024 1024 1024 
1024 1024 1024 1024 1024 1024 1024 1024 1024 
1024 1024 1024 1024 1024 1024 1024 1024 1024 
1024 1024 1024 1024 1024 1024 1024 1024 1024 
1024 1024 1024 1024 1024 1024 1024 1024 1024 
1024 1024 1024 1024 1024 1024 1024 1024 1024 
1024 1024 1024 1024 1024 1024 1024 1024 1024 
1024 1024 1024 1024 1024 1024 1024 1024 1024 
1024 1024 1024 1024 1024 1024 1024 1024 1024 
1024 1024 1024 1024 1024 1024 1024 1024 1024 
1024 1024 1024 1024 1024 1024 1024 1024 1024 
1024 1024 1024 1024 1024 1024 1024 1024 1024 
1024 1024 1024 1024 1024 1024 1024 1024 1024 
1024 1024 1024 1024 1024 1024 1024 1024 1024 
1024 1024 1024 1024 1024 1024 1024 1024 1024 
1024 1024 1024 1024 1024 1024 1024 1024 1024 
1024 1024 1024 1024 1024 1024 1024 1024 1024 
1024 1024 1024 1024 1024 1024 1024 1024 1024 
1024 1024 1024 1024 1024 1024 1024 1024 1024 
1024 1024 1024 1024 1024 1024 1024 1024 1024 
1024 1024 1024 1024 1024 1024 1024 1024 1024 
1024 1024 1024 1024 1024 1024 1024 1024 1024 
1024 1024 1024 1024 1024 1024 1024 1024 1024 
1024 1024 1024 1024 1024 1024 1024 1024 1024 
1024 1024 1024 1024 1024 1024 1024 1024 1024 
1024 1024 1024 1024 1024 1024 1024 1024 1024 
1024 1024 1024 1024 1024 1024 1024 1024 1024 
1024 1024 1024 1024 1024 1024 1024 1024 1024 
1024 1024 1024 1024 1024 1024 1024 1024 1024 
1024 1024 1024 1024 1024 1024 1024 1024 1024 
1024 1024 1024 1024 1024 1024 1024 1024 1024 
1024 1024 1024 1024 1024 1024 1024 1024 1024 
1024 1024 1024 1024 1024 1024 1024 1024 1024 
1024 1024 1024 1024 1024 1024 1024 1024 1024 
1024 1024 1024 1024 1024 1024 1024 1024 1024 
1024 1024 1024 1024 1024 1024 1024 1024 1024 
1024 1024 1024 1024 1024 1024 1024 1024 1024 
1024 1024 1024 1024 1024 1024 1024 1024 1024 
1024 1024 1024 1024 1024 1024 1024 1024 1024 
1024 1024 1024 1024 1024 1024 1024 1024 1024 
1024 1024 1024 1024 1024 1024 1024 1024 1024 
1024 1024 1024 1024 1024 1024 1024 1024 1024 
1024 1024 1024 1024 1024 1024 1024 1024 1024 
1024 1024 1024 1024 1024 1024 1024 1024 1024 
1024 1024 1024 1024 1024 1024 1024 1024 1024 
1024 1024 1024 1024 1024 1024 1024 1024 1024 
1024 1024 1024 1024 1024 1024 1024 1024 1024 
1024 1024 1024 1024 1024 1024 1024 1024 1024 
1024 1024 1024 1024 1024 1024 1024 1024 1024 
1024 1024 1024 1024 1024 1024 1024 1024 1024 
1024 1024 1024 1024 1024 1024 1024 1024 1024 
1024 1024 1024 1024 1024 1024 1024 1024 1024 
1024 1024 1024 1024 1024 1024 1024 1024 1024 
1024 1024 1024 1024 1024 1024 1024 1024 1024 
1024 1024 1024 1024 1024 1024 1024 1024 1024 
1024 1024 1024 1024 1024 1024 1024 1024 1024 
1024 1024 1024 1024 1024 1024 1024 1024 1024 
1024 1024 1024 1024 1024 1024 1024 1024 1024 
1024 1024 1024 1024 1024 1024 1024 1024 1024 
1024 1024 1024 1024 1024 1024 1024 1024 1024 
1024 1024 1024 1024 1024 1024 1024 1024 1024 
1024 1024 1024 1024 1024 1024 1024 1024 1024 
1024 1024 1024 1024 1024 1024 1024 1024 1024 
1024 1024 1024 1024 1024 1024 1024 1024 1024 
1024 1024 1024 1024 1024 1024 1024 1024 1024 
1024 1024 1024 1024 1024 1024 1024 1024 1024 
1024 1024 1024 1024 1024 1024 1024 1024 1024 
1024 1024 1024 1024 1024 1024 1024 1024 1024 
1024 1024 1024 1024 1024 1024 1024 1024 1024 
1024 1024 1024 1024 1024 1024 1024 1024 1024 
1024 1024 1024 1024 1024 1024 1024 1024 1024 
1024 1024 1024 1024 1024 1024 1024 1024 1024 
1024 1024 1024 1024 1024 1024 1024 1024 1024 
1024 1024 1024 1024 1024 1024 1024 1024 1024 
1024 1024 1024 1024 1024 1024 1024 1024 1024 
1024 1024 1024 1024 1024 1024 1024 1024 1024 
1024 1024 1024 1024 1024 1024 1024 1024 1024 
1024 1024 1024 1024 1024 1024 1024 1024 1024 
1024 1024 1024 1024 1024 1024 1024 1024 1024 
1024 1024 1024 1024 1024 1024 1024 1024 1024 
1024 1024 1024 1024 1024 1024 1024 1024 1024 
1024 1024 1024 1024 1024 1024 1024 1024 1024 
1024 1024 1024 1024 1024 1024 1024 1024 1024 
1024 1024 1024 1024 1024 1024 1024 1024 1024 
1024 1024 1024 1024 1024 1024 1024 1024 1024 
1024 1024 1024 1024 1024 1024 1024 1024 1024 
1024 1024 1024 1024 1024 1024 1024 1024 1024 
1024 1024 1024 1024 1024 1024 1024 1024 1024 
1024 1024 1024 1024 1024 1024 1024 1024 1024 
1024 1024 1024 1024 1024 1024 1024 1024 1024 
1024 1024 1024 1024 1024 1024 1024 1024 1024 
1024 1024 1024 1024 1024 1024 1024 1024 1024 
1024 1024 1024 1024 1024 1024 1024 1024 1024 
1024 1024 1024 1024 1024 1024 1024 1024 1024 
1024 1024 1024 1024 1024 1024 1024 1024 1024 
1024 1024 1024 1024 1024 1024 1024 1024 1024 
1024 1024 1024 1024 1024 1024 1024 1024 1024 
1024 1024 1024 1024 1024 1024 1024 1024 1024 
1024 1024 1024 1024 1024 1024 1024 1024 1024 
1024 1024 1024 1024 1024 1024 1024 1024 1024 
1024 1024 1024 1024 1024 1024 1024 1024 1024 
1024 1024 1024 1024 1024 1024 1024 1024 1024 
1024 1024 1024 1024 1024 1024 1024 1024 1024 
1024 1024 1024 1024 1024 1024 1024 1024 1024 
1024 1024 1024 1024 1024 1024 1024 1024 1024 
1024 1024 1024 1024 1024 1024 1024 1024 1024 
1024 1024 1024 1024 1024 1024 1024 1024 1024 
1024 1024 1024 1024 1024 1024 1024 1024 1024 
1024 1024 1024 1024 1024 1024 1024 1024 1024 
1024 1024 1024 1024 1024 1024 1024 1024 1024 
1024 1024 1024 1024 1024 1024 1024 1024 1024 
1024 1024 1024 1024 1024 1024 1024 1024 1024 
1024 1024 1024 1024 1024 1024 1024 1024 1024 
1024 1024 1024 1024 1024 1024 1024 1024 1024 
1024 1024 1024 1024 1024 1024 1024 1024 1024 
1024 1024 1024 1024 1024 1024 1024 1024 1024 
1024 1024 1024 1024 1024 1024 1024 1024 1024 
1024 1024 1024 1024 1024 1024 1024 1024 1024 
1024 1024 1024 1024 1024 1024 1024 1024 1024 
1024 1024 1024 1024 1024 1024 1024 1024 1024 
1024 1024 1024 1024 1024 1024 1024 1024 1024 
1024 1024 1024 1024 1024 1024 1024 1024 1024 
1024 1024 1024 1024 1024 1024 1024 1024 1024 
1024 1024 1024 1024 1024 1024 1024 1024 1024 
1024 1024 1024 1024 1024 1024 1024 1024 1024 
1024 1024 1024 1024 1024 1024 1024 1024 1024 
1024 1024 1024 1024 1024 1024 1024 1024 1024 
1024 1024 1024 1024 1024 1024 1024 1024 1024 
1024 1024 1024 1024 1024 1024 1024 1024 1024 
1024 1024 1024 1024 1024 1024 1024 1024 1024 
1024 1024 1024 1024 1024 1024 1024 1024 1024 
1024 1024 1024 1024 1024 1024 1024 1024 1024 
1024 1024 1024 1024 1024 1024 1024 1024 1024 
1024 1024 1024 1024 1024 1024 1024 1024 1024 
1024 1024 1024 1024 1024 1024 1024 1024 1024 
1024 1024 1024 1024 1024 1024 1024 1024 1024 
1024 1024 1024 1024 1024 1024 1024 1024 1024 
1024 1024 1024 1024 1024 1024 1024 1024 1024 
1024 1024 1024 1024 1024 1024 1024 1024 1024 
1024 1024 1024 1024 1024 1024 1024 1024 1024 
1024 1024 1024 1024 1024 1024 1024 1024 1024 
1024 1024 1024 1024 1024 1024 1024 1024 1024 
1024 1024 1024 1024 1024 1024 1024 1024 1024 
1024 1024 1024 1024 1024 1024 1024 1024 1024 
1024 1024 1024 1024 1024 1024 1024 1024 1024 
1024 1024 1024 1024 1024 1024 1024 1024 1024 
1024 1024 1024 1024 1024 1024 1024 1024 1024 
1024 1024 1024 1024 1024 1024 1024 1024 1024 
1024 1024 1024 1024 1024 1024 1024 1024 1024 
1024 1024 1024 1024 1024 1024 1024 1024 1024 
1024 1024 1024 1024 1024 1024 1024 1024 1024 
1024 1024 1024 1024 1024 1024 1024 1024 1024 
1024 1024 1024 1024 1024 1024 1024 1024 1024 
1024 1024 1024 1024 1024 1024 1024 1024 1024 
1024 1024 1024 1024 1024 1024 1024 1024 1024 
1024 1024 1024 1024 1024 1024 1024 1024 1024 
1024 1024 1024 1024 1024 1024 1024 1024 1024 
1024 1024 1024 1024 1024 1024 1024 1024 1024 
1024 1024 1024 1024 1024 1024 1024 1024 1024 
1024 1024 1024 1024 1024 1024 1024 1024 1024 
1024 1024 1024 1024 1024 1024 1024 1024 1024 
1024 1024 1024 1024 1024 1024 1024 1024 1024 
1024 1024 1024 1024 1024 1024 1024 1024 1024 
1024 1024 1024 1024 1024 1024 1024 1024 1024 
1024 1024 1024 1024 1024 1024 1024 1024 1024 
1024 1024 1024 1024 1024 1024 1024 1024 1024 
1024 1024 1024 1024 1024 1024 1024 1024 1024 
1024 1024 1024 1024 1024 1024 1024 1024 1024 
1024 1024 1024 1024 1024 1024 1024 1024 1024 
1024 1024 1024 1024 1024 1024 1024 1024 1024 
1024 1024 1024 1024 1024 1024 1024 1024 1024 
1024 1024 1024 1024 1024 1024 1024 1024 1024 
1024 1024 1024 1024 1024 1024 1024 1024 1024 
1024 1024 1024 1024 1024 1024 1024 1024 1024 
1024 1024 1024 1024 1024 1024 1024 1024 1024 
1024 1024 1024 1024 1024 1024 1024 1024 1024 
1024 1024 1024 1024 1024 1024 1024 1024 1024 
1024 1024 1024 1024 1024 1024 1024 1024 1024 
1024 1024 1024 1024 1024 1024 1024 1024 1024 
1024 1024 1024 1024 1024 1024 1024 1024 1024 
1024 1024 1024 1024 1024 1024 1024 1024 1024 
1024 1024 1024 1024 1024 1024 1024 1024 1024 
1024 1024 1024 1024 1024 1024 1024 1024 1024 
1024 1024 1024 1024 1024 1024 1024 1024 1024 
1024 1024 1024 1024 1024 1024 1024 1024 1024 
1024 1024 1024 1024 1024 1024 1024 1024 1024 
1024 1024 1024 1024 1024 1024 1024 1024 1024 
1024 1024 1024 1024 1024 1024 1024 1024 1024 
1024 1024 1024 1024 1024 1024 1024 1024 1024 
1024 1024 1024 1024 1024 1024 1024 1024 1024 
1024 1024 1024 1024 1024 1024 1024 1024 1024 
1024 1024 1024 1024 1024 1024 1024 1024 1024 
1024 1024 1024 1024 1024 1024 1024 1024 1024 
1024 1024 1024 1024 1024 1024 1024 1024 1024 
1024 1024 1024 1024 1024 1024 1024 1024 1024 
1024 1024 1024 1024 1024 1024 1024 1024 1024 
1024 1024 1024 1024 1024 1024 1024 1024 1024 
1024 1024 1024 1024 1024 1024 1024 1024 1024 
1024 1024 1024 1024 1024 1024 1024 1024 1024 
1024 1024 1024 1024 1024 1024 1024 1024 1024 
1024 1024 1024 1024 1024 1024 1024 1024 1024 
1024 1024 1024 1024 1024 1024 1024 1024 1024 
1024 1024 1024 1024 1024 1024 1024 1024 1024 
1024 1024 1024 1024 1024 1024 1024 1024 1024 
1024 1024 1024 1024 1024 1024 1024 1024 1024 
1024 1024 1024 1024 1024 1024 1024 1024 1024 
1024 1024 1024 1024 1024 1024 1024 1024 1024 
1024 1024 1024 1024 1024 1024 1024 1024 1024 
1024 1024 1024 1024 1024 1024 1024 1024 1024 
1024 1024 1024 1024 1024 1024 1024 1024 1024 
1024 1024 1024 1024 1024 1024 1024 1024 1024 
1024 1024 1024 1024 1024 1024 1024 1024 1024 
1024 1024 1024 1024 1024 1024 1024 1024 1024 
1024 1024 1024 1024 1024 1024 1024 1024 1024 
1024 1024 1024 1024 1024 1024 1024 1024 1024 
1024 1024 1024 1024 1024 1024 1024 1024 1024 
1024 1024 1024 1024 1024 1024 1024 1024 1024 
1024 1024 1024 1024 1024 1024 1024 1024 1024 
1024 1024 1024 1024 1024 1024 1024 1024 1024 
1024 1024 1024 1024 1024 1024 1024 1024 1024 
1024 1024 1024 1024 1024 1024 1024 1024 1024 
1024 1024 1024 1024 1024 1024 1024 1024 1024 
1024 1024 1024 1024 1024 1024 1024 1024 1024 
1024 1024 1024 1024 1024 1024 1024 1024 1024 
1024 1024 1024 1024 1024 1024 1024 1024 1024 
1024 1024 1024 1024 1024 1024 1024 1024 1024 
1024 1024 1024 1024 1024 1024 1024 1024 1024 
1024 1024 1024 1024 1024 1024 1024 1024 1024 
1024 1024 1024 1024 1024 1024 1024 1024 1024 
1024 1024 1024 1024 1024 1024 1024 1024 1024 
1024 1024 1024 1024 1024 1024 1024 1024 1024 
1024 1024 1024 1024 1024 1024 1024 1024 1024 
1024 1024 1024 1024 1024 1024 1024 1024 1024 
1024 1024 1024 1024 1024 1024 1024 1024 1024 
1024 1024 1024 1024 1024 1024 1024 1024 1024 
1024 1024 1024 1024 1024 1024 1024 1024 1024 
1024 1024 1024 1024 1024 1024 1024 1024 1024 
1024 1024 1024 1024 1024 1024 1024 1024 1024 
1024 1024 1024 1024 1024 1024 1024 1024 1024 
1024 1024 1024 1024 1024 1024 1024 1024 1024 
1024 1024 1024 1024 1024 1024 1024 1024 1024 
1024 1024 1024 1024 1024 1024 1024 1024 1024 
1024 1024 1024 1024 1024 1024 1024 1024 1024 
1024 1024 1024 1024 1024 1024 1024 1024 1024 
1024 1024 1024 1024 1024 1024 1024 1024 1024 
1024 1024 1024 1024 1024 1024 1024 1024 1024 
1024 1024 1024 1024 1024 1024 1024 1024 1024 
1024 1024 1024 1024 1024 1024 1024 1024 1024 
1024 1024 1024 1024 1024 1024 1024 1024 1024 
1024 1024 1024 1024 1024 1024 1024 1024 1024 
1024 1024 1024 1024 1024 1024 1024 1024 1024 
1024 1024 1024 1024 1024 1024 1024 1024 1024 
1024 1024 1024 1024 1024 1024 1024 1024 1024 
1024 1024 1024 1024 1024 1024 1024 1024 1024 
1024 1024 1024 1024 1024 1024 1024 1024 1024 
1024 1024 1024 1024 1024 1024 1024 1024 1024 
1024 1024 1024 1024 1024 1024 1024 1024 1024 
1024 1024 1024 1024 1024 1024 1024 1024 1024 
1024 1024 1024 1024 1024 1024 1024 1024 1024 
1024 1024 1024 1024 1024 1024 1024 1024 1024 
1024 1024 1024 1024 1024 1024 1024 1024 1024 
1024 1024 1024 1024 1024 1024 1024 1024 1024 
1024 1024 1024 1024 1024 1024 1024 1024 1024 