# vtk DataFile Version 4.0
vtk output
ASCII
DATASET POLYDATA
POINTS 2810 float
37.7299 29.8063 -31.0621 38.1863 29.3488 -30.5705 38.2882 29.2757 -31.2702 
36.7808 29.9792 -31.1365 37.2853 29.6034 -30.4621 36.0058 29.8679 -31.2477 
36.1126 29.3852 -30.4841 35.5197 29.3929 -31.0173 37.8806 29.6296 -31.5879 
37.5762 29.5824 -31.9873 37.0764 29.9356 -31.8897 35.9356 29.9951 -32.0921 
35.4383 29.5671 -31.7097 37.1472 29.4249 -32.5109 36.534 29.358 -33.3793 
36.0777 29.9794 -32.9951 34.9515 29.3796 -32.4014 35.1263 29.8742 -33.1148 
34.4816 29.3565 -33.062 35.9835 29.8329 -33.8409 36.3151 29.2552 -34.2648 
35.3296 29.9045 -33.8864 34.5655 29.5419 -33.7338 35.7064 29.5478 -34.4686 
34.9566 29.4999 -34.3703 39.8704 28.731 -29.9006 39.8599 28.365 -29.6971 
40.2056 28.5599 -29.9995 38.9597 28.8523 -30.1245 39.2752 28.6201 -29.5823 
37.7769 29.0763 -29.9719 38.2967 28.5814 -29.4831 36.7375 29.0684 -29.9836 
37.0884 28.4468 -29.4984 36.062 28.9424 -30.0005 36.0605 28.4011 -29.7064 
35.4874 28.5029 -29.9976 39.8691 28.6178 -30.1852 39.3641 28.3473 -30.6076 
38.74 28.6748 -31.0207 35.0118 28.9482 -31.3212 35.0049 28.4942 -30.4971 
34.5268 28.2991 -31.0399 37.9753 29.1618 -31.9447 38.4557 28.6638 -31.7478 
35.0086 29.1297 -31.897 34.5142 28.5861 -31.829 37.9988 28.4732 -32.4959 
37.109 28.8877 -32.94 37.3977 28.3758 -33.1427 33.8366 28.9184 -33.3679 
34.2027 28.7269 -32.6068 33.5924 28.3732 -32.8828 36.8901 28.6469 -33.4189 
36.6972 28.6345 -34.0959 34.0575 29.1322 -34.319 33.0996 28.4978 -33.3473 
32.8877 28.8595 -34.0281 31.7391 28.8385 -34.148 32.294 28.4539 -33.5053 
30.7216 28.8544 -34.1575 31.2898 28.4645 -33.529 29.7048 28.8738 -34.141 
30.2779 28.4828 -33.5071 28.6879 28.8991 -34.1481 29.2799 28.5115 -33.4852 
27.7619 28.8286 -34.2748 28.3264 28.5125 -33.5526 27.5746 28.4557 -33.8339 
36.0281 28.9918 -34.8796 36.4116 28.5358 -34.9595 35.0432 29.0095 -35.0281 
33.8776 29.0192 -35.1901 32.9894 29.0311 -35.0301 31.9714 29.0163 -35.0093 
30.962 29.0308 -35.0371 29.9653 29.0439 -35.0234 28.9618 29.056 -35.0198 
27.9545 29.0291 -35.0516 27.1269 28.5936 -34.4321 27.0968 28.8147 -35.0844 
26.6245 28.454 -34.9348 35.7445 28.4674 -35.4485 34.9749 28.5172 -35.6745 
34.4601 28.3839 -36.1747 34.0897 28.8055 -35.8997 33.029 29.006 -36.0092 
32.0153 29.034 -36.0384 31.0069 29.037 -36.0561 30.0051 29.0378 -36.048 
29.1722 29.0428 -35.8867 28.2645 28.9199 -36.1005 27.2791 28.8038 -35.9032 
26.5201 28.4924 -35.7151 33.8714 28.53 -36.5897 33.4083 28.4064 -37.1934 
33.2098 28.7826 -36.7637 32.2604 28.8702 -36.9101 31.2447 28.8742 -36.938 
30.2197 28.874 -36.9456 29.1439 28.8371 -36.8309 28.3729 28.5925 -36.9394 
27.6143 28.5202 -36.6459 26.832 28.4253 -36.3792 32.6416 28.4823 -37.5023 
31.6881 28.5052 -37.5716 30.7055 28.5017 -37.5769 29.7133 28.4888 -37.5519 
28.8882 28.4413 -37.4018 38.9684 28.0003 -29.1352 38.9392 27.1774 -28.6663 
39.3506 27.4061 -29.0453 37.7525 28.0301 -29.0094 38.1894 27.524 -28.6546 
36.9051 27.8409 -29.0884 37.1333 27.2248 -28.4953 36.4009 27.3635 -28.9523 
39.9321 28.1846 -30.1998 39.6487 27.5393 -29.7089 36.181 27.7652 -29.341 
34.9662 27.9721 -29.9824 35.1224 27.4503 -29.5158 34.5013 27.484 -30.009 
39.5944 27.3883 -31.0128 39.0938 28.1004 -31.1259 33.875 27.8601 -31.3571 
34.2099 27.691 -30.5952 33.623 27.383 -30.8515 31.8626 27.7942 -31.27 
31.9811 27.3172 -30.6436 32.6388 27.5632 -31.139 30.8316 27.7901 -31.2521 
31.1161 27.3618 -30.7003 30.4495 27.3502 -30.9039 38.9033 27.9793 -31.7853 
39.3428 27.1917 -32.2015 33.7509 28.1354 -32.2271 33.2332 27.5272 -31.2545 
32.8709 27.8477 -31.8997 31.8487 27.9649 -32.1661 30.9936 27.9901 -32.0159 
30.1075 27.5832 -31.3171 29.9128 27.8922 -32.0001 28.8242 27.793 -32.2795 
29.348 27.494 -31.5873 28.6068 27.4386 -31.8701 38.7799 27.659 -32.6011 
38.1107 27.9656 -33.2731 38.8079 27.5763 -33.1728 32.9597 28.1275 -32.8641 
32.0337 28.09 -32.8836 31.0336 28.1256 -32.8763 30.0252 28.1429 -32.8383 
29.003 28.1356 -32.8737 28.0823 27.5741 -32.3586 27.854 27.9958 -33.0725 
26.8146 27.7893 -33.2908 27.127 27.2827 -32.527 26.4242 27.3346 -32.9598 
38.7101 27.7406 -33.894 39.1569 27.339 -33.3865 39.3347 27.2587 -33.8189 
37.8442 27.9724 -34.1596 37.2493 28.1849 -33.8138 26.8671 28.1929 -34.0702 
26.0816 27.58 -33.3465 25.8707 27.927 -34.0275 24.7572 27.8582 -34.2675 
25.0767 27.3264 -33.5041 24.3751 27.4233 -33.9432 39.1017 27.3908 -34.5413 
38.4601 27.4323 -35.1526 38.0508 27.7998 -34.8864 37.0402 28.0931 -34.8803 
25.9452 28.1595 -35.1386 24.9545 28.0556 -35.0368 24.0973 27.6494 -34.4261 
24.1027 27.8582 -35.0837 23.6613 27.269 -34.7983 37.8431 27.5429 -35.5814 
37.5146 27.4713 -36.3343 37.0417 27.8456 -35.9489 36.0785 28.0626 -35.9507 
35.1049 28.1374 -36.1516 26.0075 28.121 -36.3316 25.1247 28.0392 -35.8872 
24.285 27.8608 -36.0673 23.4396 27.2395 -35.898 36.8005 27.8529 -37.0491 
37.4511 27.5136 -37.3165 35.9689 27.9753 -37.0081 35.01 27.9652 -37.0242 
34.1176 28.131 -36.9853 28.0638 28.2014 -37.3983 26.966 28.1453 -36.9755 
26.1945 27.8724 -37.2746 25.1193 27.836 -36.8256 24.366 27.5981 -36.9005 
23.8517 27.3977 -36.6503 36.9764 27.9174 -38.1503 37.6526 27.6139 -38.1612 
35.9911 28.0214 -38.009 34.9839 27.9831 -38.0327 33.9724 27.9789 -38.0476 
33.0161 28.11 -38.0161 31.9665 28.1327 -38.199 31.1496 28.1528 -38.0849 
30.2674 28.0003 -38.1977 29.1136 28.0161 -37.9356 28.2215 27.8679 -38.0291 
27.2301 27.8405 -37.8269 26.4581 27.5858 -37.9329 25.6732 27.5149 -37.6431 
24.8697 27.4428 -37.3951 37.7716 27.778 -38.8261 38.19 27.4829 -38.6665 
38.3377 27.5376 -39.093 37.1843 27.8768 -39.0313 36.2822 27.909 -38.8909 
35.2551 27.8705 -38.8748 34.0868 27.8726 -39.0404 32.9861 27.9923 -39.0461 
32.154 27.9986 -38.9135 31.2219 27.8234 -39.0002 30.433 27.5714 -38.8653 
29.705 27.5307 -38.5706 28.7397 27.3514 -38.4999 27.7805 27.3564 -38.3733 
26.8628 27.2438 -38.3276 38.0113 27.4178 -39.4768 36.7644 27.551 -39.563 
35.7001 27.5225 -39.5248 34.6972 27.5068 -39.5381 33.888 27.5803 -39.7122 
33.3921 27.46 -40.2197 33.1431 27.8147 -39.8067 32.1354 27.8208 -39.8527 
31.365 27.3267 -40.1272 30.8373 27.4074 -39.4514 32.6698 27.5199 -40.5162 
31.996 27.3797 -40.6194 36.992 26.7741 -27.983 37.0932 26.1561 -27.6788 
37.4501 26.6766 -28.0318 36.4773 26.5035 -27.9561 39.0737 26.3814 -28.3494 
39.4735 26.594 -28.9626 38.2321 26.7384 -28.2706 35.6521 27.0762 -29.0213 
36.0638 26.7704 -28.4958 35.0568 26.852 -29.0282 35.0447 26.3038 -28.5019 
34.4985 26.492 -29.0102 39.7051 26.4303 -30.1473 33.6774 27.0241 -30.1645 
34.1179 26.7439 -29.5122 32.8256 26.7907 -30.0397 33.113 26.3675 -29.5194 
32.0582 26.8359 -30.2044 32.1103 26.3179 -29.7354 31.4067 26.3043 -29.9655 
39.9987 26.7413 -30.8858 40.0221 26.3679 -30.8175 40.1901 26.5205 -31.0388 
37.7734 26.7853 -31.1883 38.2197 26.629 -31.1715 38.0483 26.5633 -30.8264 
37.7567 26.3627 -30.9778 32.914 27.1977 -30.6615 31.2038 26.746 -30.318 
29.726 27.0804 -30.9985 30.291 26.67 -30.4838 28.7278 26.9927 -31.2138 
29.262 26.5046 -30.5165 27.7971 26.7789 -31.2963 28.13 26.3005 -30.518 
27.4181 26.3179 -30.9448 39.8483 26.3989 -31.2812 39.4934 26.5264 -31.9143 
37.9967 26.8251 -31.7294 38.4479 26.3082 -31.8751 37.0606 26.2997 -31.4237 
37.2946 26.8028 -31.8951 36.5223 26.4121 -31.92 27.9381 27.1973 -31.8901 
27.1497 26.5364 -31.4465 27.2717 26.9006 -31.8696 26.6398 26.554 -31.9454 
39.1638 27.2191 -32.8677 39.4145 26.6007 -33.0553 37.7092 26.5595 -32.4119 
36.8529 26.512 -32.3841 25.6737 27.0872 -33.0222 26.1192 26.7536 -32.5306 
25.0682 26.8815 -33.0364 25.2885 26.5123 -32.5952 24.5826 26.2963 -32.9243 
39.6583 26.5583 -34.1973 23.9074 27.1496 -34.1629 24.169 26.7275 -33.6509 
23.6512 26.4532 -34.1444 39.7442 26.9162 -35.0086 40.0563 26.3374 -34.7441 
40.34 26.4392 -35.3177 38.9664 27.1805 -35.2217 23.2853 26.4666 -34.9019 
39.9466 26.8071 -35.9474 40.3646 26.2813 -35.9973 39.0379 27.0134 -35.9603 
38.2563 27.2024 -35.8049 23.0266 26.7077 -35.6287 22.9721 26.8512 -36.0563 
22.7081 26.1999 -35.9181 39.9466 26.4816 -36.545 39.5855 26.3536 -37.2188 
39.1232 26.8956 -36.9732 38.1385 27.1324 -36.7452 24.1487 27.0962 -37.3987 
23.429 26.8188 -36.9473 22.9486 26.5455 -36.5543 39.0727 26.8532 -37.9223 
39.4439 26.3577 -38.0633 38.258 27.2016 -37.8916 26.1041 27.1853 -38.1516 
25.1325 27.0067 -37.9795 24.2358 26.737 -38.0503 23.5407 26.5198 -37.7492 
38.8292 27.0496 -38.8386 39.3195 26.267 -38.7936 30.217 27.2162 -39.2546 
29.361 26.9556 -39.1828 28.5311 26.3954 -39.1199 27.9069 26.4631 -38.6759 
27.0129 26.4823 -38.5327 25.915 26.4942 -38.4326 24.706 26.3509 -38.4136 
23.7474 26.2224 -38.3391 38.864 26.7344 -39.5098 38.1871 26.8687 -40.0022 
38.559 26.1699 -40.051 37.142 27.0303 -40.1775 35.9843 27.1517 -40.1725 
34.9753 27.1413 -40.1667 34.0643 27.2144 -40.1819 30.7491 27.0768 -39.8853 
30.0931 26.8035 -39.8978 29.3742 26.3323 -40.0856 28.9388 26.3665 -39.6046 
37.759 26.5001 -40.5266 36.9261 26.6003 -40.7268 36.4846 26.5049 -41.0542 
36.1898 26.8046 -40.7754 35.238 26.8656 -40.8903 34.2559 26.874 -40.9027 
33.2762 27.0055 -40.8867 32.3347 26.9509 -41.0639 31.5888 26.7852 -40.9096 
30.7908 26.624 -40.5643 30.004 26.3338 -40.5402 35.9512 26.3742 -41.4665 
34.7205 26.5227 -41.5626 33.7036 26.3406 -41.5455 32.7267 26.3478 -41.4236 
31.8111 26.2419 -41.3648 38.7253 25.9197 -27.9168 38.8508 25.3658 -27.7535 
39.3446 25.57 -28.27 37.9439 26.194 -27.8525 37.9399 25.5659 -27.6567 
36.8009 25.2823 -27.5845 35.6131 26.0822 -27.948 36.1255 25.6757 -27.5869 
35.0275 25.8644 -27.971 35.2648 25.4337 -27.7144 34.7497 25.4648 -28.1042 
39.5653 25.6493 -29.1184 33.6703 26.0729 -29.0215 34.0968 25.4599 -28.5662 
32.9306 25.8325 -29.0727 33.0658 25.3602 -28.72 32.4164 25.3438 -28.9289 
28.8439 25.787 -29.323 29.0869 25.1516 -28.6784 29.5962 25.5544 -29.152 
28.3542 25.3521 -28.8886 39.5794 25.2938 -29.825 32.2359 25.7481 -29.307 
30.677 26.0417 -29.9906 31.2819 25.6305 -29.5206 29.7198 25.9978 -29.8539 
30.3309 25.4782 -29.4211 28.8637 26.165 -30.0048 27.8994 25.3582 -29.3568 
28.2371 25.9461 -29.84 27.4931 25.5186 -29.9568 40.074 26.2287 -31.0647 
[...]
CELL_DATA 5624
SCALARS scalars float
LOOKUP_TABLE default
2033 2033 2033 2033 2033 2033 2033 2033 2033 
2033 2033 2033 2033 2033 2033 2033 2033 2033 
2033 2033 2033 2033 2033 2033 2033 2033 2033 
2033 2033 2033 2033 2033 2033 2033 2033 2033 
2033 2033 2033 2033 2033 2033 2033 2033 2033 
2033 2033 2033 2033 2033 2033 2033 2033 2033 
2033 2033 2033 2033 2033 2033 2033 2033 2033 
2033 2033 2033 2033 2033 2033 2033 2033 2033 
2033 2033 2033 2033 2033 2033 2033 2033 2033 
2033 2033 2033 2033 2033 2033 2033 2033 2033 
2033 2033 2033 2033 2033 2033 2033 2033 2033 
2033 2033 2033 2033 2033 2033 2033 2033 2033 
2033 2033 2033 2033 2033 2033 2033 2033 2033 
2033 2033 2033 2033 2033 2033 2033 2033 2033 
2033 2033 2033 2033 2033 2033 2033 2033 2033 
2033 2033 2033 2033 2033 2033 2033 2033 2033 
2033 2033 2033 2033 2033 2033 2033 2033 2033 
2033 2033 2033 2033 2033 2033 2033 2033 2033 
2033 2033 2033 2033 2033 2033 2033 2033 2033 
2033 2033 2033 2033 2033 2033 2033 2033 2033 
2033 2033 2033 2033 2033 2033 2033 2033 2033 
2033 2033 2033 2033 2033 2033 2033 2033 2033 
2033 2033 2033 2033 2033 2033 2033 2033 2033 
2033 2033 2033 2033 2033 2033 2033 2033 2033 
2033 2033 2033 2033 2033 2033 2033 2033 2033 
2033 2033 2033 2033 2033 2033 2033 2033 2033 
2033 2033 2033 2033 2033 2033 2033 2033 2033 
2033 2033 2033 2033 2033 2033 2033 2033 2033 
2033 2033 2033 2033 2033 2033 2033 2033 2033 
2033 2033 2033 2033 2033 2033 2033 2033 2033 
2033 2033 2033 2033 2033 2033 2033 2033 2033 
2033 2033 2033 2033 2033 2033 2033 2033 2033 
2033 2033 2033 2033 2033 2033 2033 2033 2033 
2033 2033 2033 2033 2033 2033 2033 2033 2033 
2033 2033 2033 2033 2033 2033 2033 2033 2033 
2033 2033 2033 2033 2033 2033 2033 2033 2033 
2033 2033 2033 2033 2033 2033 2033 2033 2033 
2033 2033 2033 2033 2033 2033 2033 2033 2033 
2033 2033 2033 2033 2033 2033 2033 2033 2033 
2033 2033 2033 2033 2033 2033 2033 2033 2033 
2033 2033 2033 2033 2033 2033 2033 2033 2033 
2033 2033 2033 2033 2033 2033 2033 2033 2033 
2033 2033 2033 2033 2033 2033 2033 2033 2033 
2033 2033 2033 2033 2033 2033 2033 2033 2033 
2033 2033 2033 2033 2033 2033 2033 2033 2033 
2033 2033 2033 2033 2033 2033 2033 2033 2033 
2033 2033 2033 2033 2033 2033 2033 2033 2033 
2033 2033 2033 2033 2033 2033 2033 2033 2033 
2033 2033 2033 2033 2033 2033 2033 2033 2033 
2033 2033 2033 2033 2033 2033 2033 2033 2033 
2033 2033 2033 2033 2033 2033 2033 2033 2033 
2033 2033 2033 2033 2033 2033 2033 2033 2033 
2033 2033 2033 2033 2033 2033 2033 2033 2033 
2033 2033 2033 2033 2033 2033 2033 2033 2033 
2033 2033 2033 2033 2033 2033 2033 2033 2033 
2033 2033 2033 2033 2033 2033 2033 2033 2033 
2033 2033 2033 2033 2033 2033 2033 2033 2033 
2033 2033 2033 2033 2033 2033 2033 2033 2033 
2033 2033 2033 2033 2033 2033 2033 2033 2033 
2033 2033 2033 2033 2033 2033 2033 2033 2033 
2033 2033 2033 2033 2033 2033 2033 2033 2033 
2033 2033 2033 2033 2033 2033 2033 2033 2033 
2033 2033 2033 2033 2033 2033 2033 2033 2033 
2033 2033 2033 2033 2033 2033 2033 2033 2033 
2033 2033 2033 2033 2033 2033 2033 2033 2033 
2033 2033 2033 2033 2033 2033 2033 2033 2033 
2033 2033 2033 2033 2033 2033 2033 2033 2033 
2033 2033 2033 2033 2033 2033 2033 2033 2033 
2033 2033 2033 2033 2033 2033 2033 2033 2033 
2033 2033 2033 2033 2033 2033 2033 2033 2033 
2033 2033 2033 2033 2033 2033 2033 2033 2033 
2033 2033 2033 2033 2033 2033 2033 2033 2033 
2033 2033 2033 2033 2033 2033 2033 2033 2033 
2033 2033 2033 2033 2033 2033 2033 2033 2033 
2033 2033 2033 2033 2033 2033 2033 2033 2033 
2033 2033 2033 2033 2033 2033 2033 2033 2033 
2033 2033 2033 2033 2033 2033 2033 2033 2033 
2033 2033 2033 2033 2033 2033 2033 2033 2033 
2033 2033 2033 2033 2033 2033 2033 2033 2033 
2033 2033 2033 2033 2033 2033 2033 2033 2033 
2033 2033 2033 2033 2033 2033 2033 2033 2033 
2033 2033 2033 2033 2033 2033 2033 2033 2033 
2033 2033 2033 2033 2033 2033 2033 2033 2033 
2033 2033 2033 2033 2033 2033 2033 2033 2033 
2033 2033 2033 2033 2033 2033 2033 2033 2033 
2033 2033 2033 2033 2033 2033 2033 2033 2033 
2033 2033 2033 2033 2033 2033 2033 2033 2033 
2033 2033 2033 2033 2033 2033 2033 2033 2033 
2033 2033 2033 2033 2033 2033 2033 2033 2033 
2033 2033 2033 2033 2033 2033 2033 2033 2033 
2033 2033 2033 2033 2033 2033 2033 2033 2033 
2033 2033 2033 2033 2033 2033 2033 2033 2033 
2033 2033 2033 2033 2033 2033 2033 2033 2033 
2033 2033 2033 2033 2033 2033 2033 2033 2033 
2033 2033 2033 2033 2033 2033 2033 2033 2033 
2033 2033 2033 2033 2033 2033 2033 2033 2033 
2033 2033 2033 2033 2033 2033 2033 2033 2033 
2033 2033 2033 2033 2033 2033 2033 2033 2033 
2033 2033 2033 2033 2033 2033 2033 2033 2033 
2033 2033 2033 2033 2033 2033 2033 2033 2033 
2033 2033 2033 2033 2033 2033 2033 2033 2033 
2033 2033 2033 2033 2033 2033 2033 2033 2033 
2033 2033 2033 2033 2033 2033 2033 2033 2033 
2033 2033 2033 2033 2033 2033 2033 2033 2033 
2033 2033 2033 2033 2033 2033 2033 2033 2033 
2033 2033 2033 2033 2033 2033 2033 2033 2033 
2033 2033 2033 2033 2033 2033 2033 2033 2033 
2033 2033 2033 2033 2033 2033 2033 2033 2033 
2033 2033 2033 2033 2033 2033 2033 2033 2033 
2033 2033 2033 2033 2033 2033 2033 2033 2033 
2033 2033 2033 2033 2033 2033 2033 2033 2033 
2033 2033 2033 2033 2033 2033 2033 2033 2033 
2033 2033 2033 2033 2033 2033 2033 2033 2033 
2033 2033 2033 2033 2033 2033 2033 2033 2033 
2033 2033 2033 2033 2033 2033 2033 2033 2033 
2033 2033 2033 2033 2033 2033 2033 2033 2033 
2033 2033 2033 2033 2033 2033 2033 2033 2033 
2033 2033 2033 2033 2033 2033 2033 2033 2033 
2033 2033 2033 2033 2033 2033 2033 2033 2033 
2033 2033 2033 2033 2033 2033 2033 2033 2033 
2033 2033 2033 2033 2033 2033 2033 2033 2033 
2033 2033 2033 2033 2033 2033 2033 2033 2033 
2033 2033 2033 2033 2033 2033 2033 2033 2033 
2033 2033 2033 2033 2033 2033 2033 2033 2033 
2033 2033 2033 2033 2033 2033 2033 2033 2033 
2033 2033 2033 2033 2033 2033 2033 2033 2033 
2033 2033 2033 2033 2033 2033 2033 2033 2033 
2033 2033 2033 2033 2033 2033 2033 2033 2033 
2033 2033 2033 2033 2033 2033 2033 2033 2033 
2033 2033 2033 2033 2033 2033 2033 2033 2033 
2033 2033 2033 2033 2033 2033 2033 2033 2033 
2033 2033 2033 2033 2033 2033 2033 2033 2033 
2033 2033 2033 2033 2033 2033 2033 2033 2033 
2033 2033 2033 2033 2033 2033 2033 2033 2033 
2033 2033 2033 2033 2033 2033 2033 2033 2033 
2033 2033 2033 2033 2033 2033 2033 2033 2033 
2033 2033 2033 2033 2033 2033 2033 2033 2033 
2033 2033 2033 2033 2033 2033 2033 2033 2033 
2033 2033 2033 2033 2033 2033 2033 2033 2033 
2033 2033 2033 2033 2033 2033 2033 2033 2033 
2033 2033 2033 2033 2033 2033 2033 2033 2033 
2033 2033 2033 2033 2033 2033 2033 2033 2033 
2033 2033 2033 2033 2033 2033 2033 2033 2033 
2033 2033 2033 2033 2033 2033 2033 2033 2033 
2033 2033 2033 2033 2033 2033 2033 2033 2033 
2033 2033 2033 2033 2033 2033 2033 2033 2033 
2033 2033 2033 2033 2033 2033 2033 2033 2033 
2033 2033 2033 2033 2033 2033 2033 2033 2033 
2033 2033 2033 2033 2033 2033 2033 2033 2033 
2033 2033 2033 2033 2033 2033 2033 2033 2033 
2033 2033 2033 2033 2033 2033 2033 2033 2033 
2033 2033 2033 2033 2033 2033 2033 2033 2033 
2033 2033 2033 2033 2033 2033 2033 2033 2033 
2033 2033 2033 2033 2033 2033 2033 2033 2033 
2033 2033 2033 2033 2033 2033 2033 2033 2033 
2033 2033 2033 2033 2033 2033 2033 2033 2033 
2033 2033 2033 2033 2033 2033 2033 2033 2033 
2033 2033 2033 2033 2033 2033 2033 2033 2033 
2033 2033 2033 2033 2033 2033 2033 2033 2033 
2033 2033 2033 2033 2033 2033 2033 2033 2033 
2033 2033 2033 2033 2033 2033 2033 2033 2033 
2033 2033 2033 2033 2033 2033 2033 2033 2033 
2033 2033 2033 2033 2033 2033 2033 2033 2033 
2033 2033 2033 2033 2033 2033 2033 2033 2033 
2033 2033 2033 2033 2033 2033 2033 2033 2033 
2033 2033 2033 2033 2033 2033 2033 2033 2033 
2033 2033 2033 2033 2033 2033 2033 2033 2033 
2033 2033 2033 2033 2033 2033 2033 2033 2033 
2033 2033 2033 2033 2033 2033 2033 2033 2033 
2033 2033 2033 2033 2033 2033 2033 2033 2033 
2033 2033 2033 2033 2033 2033 2033 2033 2033 
2033 2033 2033 2033 2033 2033 2033 2033 2033 
2033 2033 2033 2033 2033 2033 2033 2033 2033 
2033 2033 2033 2033 2033 2033 2033 2033 2033 
2033 2033 2033 2033 2033 2033 2033 2033 2033 
2033 2033 2033 2033 2033 2033 2033 2033 2033 
2033 2033 2033 2033 2033 2033 2033 2033 2033 
2033 2033 2033 2033 2033 2033 2033 2033 2033 
2033 2033 2033 2033 2033 2033 2033 2033 2033 
2033 2033 2033 2033 2033 2033 2033 2033 2033 
2033 2033 2033 2033 2033 2033 2033 2033 2033 
2033 2033 2033 2033 2033 2033 2033 2033 2033 
2033 2033 2033 2033 2033 2033 2033 2033 2033 
2033 2033 2033 2033 2033 2033 2033 2033 2033 
2033 2033 2033 2033 2033 2033 2033 2033 2033 
2033 2033 2033 2033 2033 2033 2033 2033 2033 
2033 2033 2033 2033 2033 2033 2033 2033 2033 
2033 2033 2033 2033 2033 2033 2033 2033 2033 
2033 2033 2033 2033 2033 2033 2033 2033 2033 
2033 2033 2033 2033 2033 2033 2033 2033 2033 
2033 2033 2033 2033 2033 2033 2033 2033 2033 
2033 2033 2033 2033 2033 2033 2033 2033 2033 
2033 2033 2033 2033 2033 2033 2033 2033 2033 
2033 2033 2033 2033 2033 2033 2033 2033 2033 
2033 2033 2033 2033 2033 2033 2033 2033 2033 
2033 2033 2033 2033 2033 2033 2033 2033 2033 
2033 2033 2033 2033 2033 2033 2033 2033 2033 
2033 2033 2033 2033 2033 2033 2033 2033 2033 
2033 2033 2033 2033 2033 2033 2033 2033 2033 
2033 2033 2033 2033 2033 2033 2033 2033 2033 
2033 2033 2033 2033 2033 2033 2033 2033 2033 
2033 2033 2033 2033 2033 2033 2033 2033 2033 
2033 2033 2033 2033 2033 2033 2033 2033 2033 
2033 2033 2033 2033 2033 2033 2033 2033 2033 
2033 2033 2033 2033 2033 2033 2033 2033 2033 
2033 2033 2033 2033 2033 2033 2033 2033 2033 
2033 2033 2033 2033 2033 2033 2033 2033 2033 
2033 2033 2033 2033 2033 2033 2033 2033 2033 
2033 2033 2033 2033 2033 2033 2033 2033 2033 
2033 2033 2033 2033 2033 2033 2033 2033 2033 
2033 2033 2033 2033 2033 2033 2033 2033 2033 
2033 2033 2033 2033 2033 2033 2033 2033 2033 
2033 2033 2033 2033 2033 2033 2033 2033 2033 
2033 2033 2033 2033 2033 2033 2033 2033 2033 
2033 2033 2033 2033 2033 2033 2033 2033 2033 
2033 2033 2033 2033 2033 2033 2033 2033 2033 
2033 2033 2033 2033 2033 2033 2033 2033 2033 
2033 2033 2033 2033 2033 2033 2033 2033 2033 
2033 2033 2033 2033 2033 2033 2033 2033 2033 
2033 2033 2033 2033 2033 2033 2033 2033 2033 
2033 2033 2033 2033 2033 2033 2033 2033 2033 
2033 2033 2033 2033 2033 2033 2033 2033 2033 
2033 2033 2033 2033 2033 2033 2033 2033 2033 
2033 2033 2033 2033 2033 2033 2033 2033 2033 
2033 2033 2033 2033 2033 2033 2033 2033 2033 
2033 2033 2033 2033 2033 2033 2033 2033 2033 
2033 2033 2033 2033 2033 2033 2033 2033 2033 
2033 2033 2033 2033 2033 2033 2033 2033 2033 
2033 2033 2033 2033 2033 2033 2033 2033 2033 
2033 2033 2033 2033 2033 2033 2033 2033 2033 
2033 2033 2033 2033 2033 2033 2033 2033 2033 
2033 2033 2033 2033 2033 2033 2033 2033 2033 
2033 2033 2033 2033 2033 2033 2033 2033 2033 
2033 2033 2033 2033 2033 2033 2033 2033 2033 
2033 2033 2033 2033 2033 2033 2033 2033 2033 
2033 2033 2033 2033 2033 2033 2033 2033 2033 
2033 2033 2033 2033 2033 2033 2033 2033 2033 
2033 2033 2033 2033 2033 2033 2033 2033 2033 
2033 2033 2033 2033 2033 2033 2033 2033 2033 
2033 2033 2033 2033 2033 2033 2033 2033 2033 
2033 2033 2033 2033 2033 2033 2033 2033 2033 
2033 2033 2033 2033 2033 2033 2033 2033 2033 
2033 2033 2033 2033 2033 2033 2033 2033 2033 
2033 2033 2033 2033 2033 2033 2033 2033 2033 
2033 2033 2033 2033 2033 2033 2033 2033 2033 
2033 2033 2033 2033 2033 2033 2033 2033 2033 
2033 2033 2033 2033 2033 2033 2033 2033 2033 
2033 2033 2033 2033 2033 2033 2033 2033 2033 
2033 2033 2033 2033 2033 2033 2033 2033 2033 
2033 2033 2033 2033 2033 2033 2033 2033 2033 
2033 2033 2033 2033 2033 2033 2033 2033 2033 
2033 2033 2033 2033 2033 2033 2033 2033 2033 
2033 2033 2033 2033 2033 2033 2033 2033 2033 
2033 2033 2033 2033 2033 2033 2033 2033 2033 
2033 2033 2033 2033 2033 2033 2033 2033 2033 
2033 2033 2033 2033 2033 2033 2033 2033 2033 
2033 2033 2033 2033 2033 2033 2033 2033 2033 
2033 2033 2033 2033 2033 2033 2033 2033 2033 
2033 2033 2033 2033 2033 2033 2033 2033 2033 
2033 2033 2033 2033 2033 2033 2033 2033 2033 
2033 2033 2033 2033 2033 2033 2033 2033 2033 
2033 2033 2033 2033 2033 2033 2033 2033 2033 
2033 2033 2033 2033 2033 2033 2033 2033 2033 
2033 2033 2033 2033 2033 2033 2033 2033 2033 
2033 2033 2033 2033 2033 2033 2033 2033 2033 
2033 2033 2033 2033 2033 2033 2033 2033 2033 
2033 2033 2033 2033 2033 2033 2033 2033 2033 
2033 2033 2033 2033 2033 2033 2033 2033 2033 
2033 2033 2033 2033 2033 2033 2033 2033 2033 
2033 2033 2033 2033 2033 2033 2033 2033 2033 
2033 2033 2033 2033 2033 2033 2033 2033 2033 
2033 2033 2033 2033 2033 2033 2033 2033 2033 
2033 2033 2033 2033 2033 2033 2033 2033 2033 
2033 2033 2033 2033 2033 2033 2033 2033 2033 
2033 2033 2033 2033 2033 2033 2033 2033 2033 
2033 2033 2033 2033 2033 2033 2033 2033 2033 
2033 2033 2033 2033 2033 2033 2033 2033 2033 
2033 2033 2033 2033 2033 2033 2033 2033 2033 
2033 2033 2033 2033 2033 2033 2033 2033 2033 
2033 2033 2033 2033 2033 2033 2033 2033 2033 
2033 2033 2033 2033 2033 2033 2033 2033 2033 
2033 2033 2033 2033 2033 2033 2033 2033 2033 
2033 2033 2033 2033 2033 2033 2033 2033 2033 
2033 2033 2033 2033 2033 2033 2033 2033 2033 
2033 2033 2033 2033 2033 2033 2033 2033 2033 
2033 2033 2033 2033 2033 2033 2033 2033 2033 
2033 2033 2033 2033 2033 2033 2033 2033 2033 
2033 2033 2033 2033 2033 2033 2033 2033 2033 
2033 2033 2033 2033 2033 2033 2033 2033 2033 
2033 2033 2033 2033 2033 2033 2033 2033 2033 
2033 2033 2033 2033 2033 2033 2033 2033 2033 
2033 2033 2033 2033 2033 2033 2033 2033 2033 
2033 2033 2033 2033 2033 2033 2033 2033 2033 
2033 2033 2033 2033 2033 2033 2033 2033 2033 
2033 2033 2033 2033 2033 2033 2033 2033 2033 
2033 2033 2033 2033 2033 2033 2033 2033 2033 
2033 2033 2033 2033 2033 2033 2033 2033 2033 
2033 2033 2033 2033 2033 2033 2033 2033 2033 
2033 2033 2033 2033 2033 2033 2033 2033 2033 
2033 2033 2033 2033 2033 2033 2033 2033 2033 
2033 2033 2033 2033 2033 2033 2033 2033 2033 
2033 2033 2033 2033 2033 2033 2033 2033 2033 
2033 2033 2033 2033 2033 2033 2033 2033 2033 
2033 2033 2033 2033 2033 2033 2033 2033 2033 
2033 2033 2033 2033 2033 2033 2033 2033 2033 
2033 2033 2033 2033 2033 2033 2033 2033 2033 
2033 2033 2033 2033 2033 2033 2033 2033 2033 
2033 2033 2033 2033 2033 2033 2033 2033 2033 
2033 2033 2033 2033 2033 2033 2033 2033 2033 
2033 2033 2033 2033 2033 2033 2033 2033 2033 
2033 2033 2033 2033 2033 2033 2033 2033 2033 
2033 2033 2033 2033 2033 2033 2033 2033 2033 
2033 2033 2033 2033 2033 2033 2033 2033 2033 
2033 2033 2033 2033 2033 2033 2033 2033 2033 
2033 2033 2033 2033 2033 2033 2033 2033 2033 
2033 2033 2033 2033 2033 2033 2033 2033 2033 
2033 2033 2033 2033 2033 2033 2033 2033 2033 
2033 2033 2033 2033 2033 2033 2033 2033 2033 
2033 2033 2033 2033 2033 2033 2033 2033 2033 
2033 2033 2033 2033 2033 2033 2033 2033 2033 
2033 2033 2033 2033 2033 2033 2033 2033 2033 
2033 2033 2033 2033 2033 2033 2033 2033 2033 
2033 2033 2033 2033 2033 2033 2033 2033 2033 
2033 2033 2033 2033 2033 2033 2033 2033 2033 
2033 2033 2033 2033 2033 2033 2033 2033 2033 
2033 2033 2033 2033 2033 2033 2033 2033 2033 
2033 2033 2033 2033 2033 2033 2033 2033 2033 
2033 2033 2033 2033 2033 2033 2033 2033 2033 
2033 2033 2033 2033 2033 2033 2033 2033 2033 
2033 2033 2033 2033 2033 2033 2033 2033 2033 
2033 2033 2033 2033 2033 2033 2033 2033 2033 
2033 2033 2033 2033 2033 2033 2033 2033 2033 
2033 2033 2033 2033 2033 2033 2033 2033 2033 
2033 2033 2033 2033 2033 2033 2033 2033 2033 
2033 2033 2033 2033 2033 2033 2033 2033 2033 
2033 2033 2033 2033 2033 2033 2033 2033 2033 
2033 2033 2033 2033 2033 2033 2033 2033 2033 
2033 2033 2033 2033 2033 2033 2033 2033 2033 
2033 2033 2033 2033 2033 2033 2033 2033 2033 
2033 2033 2033 2033 2033 2033 2033 2033 2033 
2033 2033 2033 2033 2033 2033 2033 2033 2033 
2033 2033 2033 2033 2033 2033 2033 2033 2033 
2033 2033 2033 2033 2033 2033 2033 2033 2033 
2033 2033 2033 2033 2033 2033 2033 2033 2033 
2033 2033 2033 2033 2033 2033 2033 2033 2033 
2033 2033 2033 2033 2033 2033 2033 2033 2033 
2033 2033 2033 2033 2033 2033 2033 2033 2033 
2033 2033 2033 2033 2033 2033 2033 2033 2033 
2033 2033 2033 2033 2033 2033 2033 2033 2033 
2033 2033 2033 2033 2033 2033 2033 2033 2033 
2033 2033 2033 2033 2033 2033 2033 2033 2033 
2033 2033 2033 2033 2033 2033 2033 2033 2033 
2033 2033 2033 2033 2033 2033 2033 2033 2033 
2033 2033 2033 2033 2033 2033 2033 2033 2033 
2033 2033 2033 2033 2033 2033 2033 2033 2033 
2033 2033 2033 2033 2033 2033 2033 2033 2033 
2033 2033 2033 2033 2033 2033 2033 2033 2033 
2033 2033 2033 2033 2033 2033 2033 2033 2033 
2033 2033 2033 2033 2033 2033 2033 2033 2033 
2033 2033 2033 2033 2033 2033 2033 2033 2033 
2033 2033 2033 2033 2033 2033 2033 2033 2033 
2033 2033 2033 2033 2033 2033 2033 2033 2033 
2033 2033 2033 2033 2033 2033 2033 2033 2033 
2033 2033 2033 2033 2033 2033 2033 2033 2033 
2033 2033 2033 2033 2033 2033 2033 2033 2033 
2033 2033 2033 2033 2033 2033 2033 2033 2033 
2033 2033 2033 2033 2033 2033 2033 2033 2033 
2033 2033 2033 2033 2033 2033 2033 2033 2033 
2033 2033 2033 2033 2033 2033 2033 2033 2033 
2033 2033 2033 2033 2033 2033 2033 2033 2033 
2033 2033 2033 2033 2033 2033 2033 2033 2033 
2033 2033 2033 2033 2033 2033 2033 2033 2033 
2033 2033 2033 2033 2033 2033 2033 2033 2033 
2033 2033 2033 2033 2033 2033 2033 2033 2033 
2033 2033 2033 2033 2033 2033 2033 2033 2033 
2033 2033 2033 2033 2033 2033 2033 2033 2033 
2033 2033 2033 2033 2033 2033 2033 2033 2033 
2033 2033 2033 2033 2033 2033 2033 2033 2033 
2033 2033 2033 2033 2033 2033 2033 2033 2033 
2033 2033 2033 2033 2033 2033 2033 2033 2033 
2033 2033 2033 2033 2033 2033 2033 2033 2033 
2033 2033 2033 2033 2033 2033 2033 2033 2033 
2033 2033 2033 2033 2033 2033 2033 2033 2033 
2033 2033 2033 2033 2033 2033 2033 2033 2033 
2033 2033 2033 2033 2033 2033 2033 2033 2033 
2033 2033 2033 2033 2033 2033 2033 2033 2033 
2033 2033 2033 2033 2033 2033 2033 2033 2033 
2033 2033 2033 2033 2033 2033 2033 2033 2033 
2033 2033 2033 2033 2033 2033 2033 2033 2033 
2033 2033 2033 2033 2033 2033 2033 2033 2033 
2033 2033 2033 2033 2033 2033 2033 2033 2033 
2033 2033 2033 2033 2033 2033 2033 2033 2033 
2033 2033 2033 2033 2033 2033 2033 2033 2033 
2033 2033 2033 2033 2033 2033 2033 2033 2033 
2033 2033 2033 2033 2033 2033 2033 2033 2033 
2033 2033 2033 2033 2033 2033 2033 2033 2033 
2033 2033 2033 2033 2033 2033 2033 2033 2033 
2033 2033 2033 2033 2033 2033 2033 2033 2033 
2033 2033 2033 2033 2033 2033 2033 2033 2033 
2033 2033 2033 2033 2033 2033 2033 2033 2033 
2033 2033 2033 2033 2033 2033 2033 2033 2033 
2033 2033 2033 2033 2033 2033 2033 2033 2033 
2033 2033 2033 2033 2033 2033 2033 2033 2033 
2033 2033 2033 2033 2033 2033 2033 2033 2033 
2033 2033 2033 2033 2033 2033 2033 2033 2033 
2033 2033 2033 2033 2033 2033 2033 2033 2033 
2033 2033 2033 2033 2033 2033 2033 2033 2033 
2033 2033 2033 2033 2033 2033 2033 2033 2033 
2033 2033 2033 2033 2033 2033 2033 2033 2033 
2033 2033 2033 2033 2033 2033 2033 2033 2033 
2033 2033 2033 2033 2033 2033 2033 2033 2033 
2033 2033 2033 2033 2033 2033 2033 2033 2033 
2033 2033 2033 2033 2033 2033 2033 2033 2033 
2033 2033 2033 2033 2033 2033 2033 2033 2033 
2033 2033 2033 2033 2033 2033 2033 2033 2033 
2033 2033 2033 2033 2033 2033 2033 2033 2033 
2033 2033 2033 2033 2033 2033 2033 2033 2033 
2033 2033 2033 2033 2033 2033 2033 2033 2033 
2033 2033 2033 2033 2033 2033 2033 2033 2033 
2033 2033 2033 2033 2033 2033 2033 2033 2033 
2033 2033 2033 2033 2033 2033 2033 2033 2033 
2033 2033 2033 2033 2033 2033 2033 2033 2033 
2033 2033 2033 2033 2033 2033 2033 2033 2033 
2033 2033 2033 2033 2033 2033 2033 2033 2033 
2033 2033 2033 2033 2033 2033 2033 2033 2033 
2033 2033 2033 2033 2033 2033 2033 2033 2033 
2033 2033 2033 2033 2033 2033 2033 2033 2033 
2033 2033 2033 2033 2033 2033 2033 2033 2033 
2033 2033 2033 2033 2033 2033 2033 2033 2033 
2033 2033 2033 2033 2033 2033 2033 2033 2033 
2033 2033 2033 2033 2033 2033 2033 2033 2033 
2033 2033 2033 2033 2033 2033 2033 2033 2033 
2033 2033 2033 2033 2033 2033 2033 2033 2033 