# vtk DataFile Version 4.0
vtk output
ASCII
DATASET POLYDATA
POINTS 18244 float
17.011 -34.2495 27.9887 17.1025 -34.5032 28.3466 17.2386 -34.6914 27.9727 
16.7128 -34.6359 28.1396 16.9117 -34.6095 27.7596 5.0494 -35.269 36.9685 
5.03779 -35.3396 37.2216 5.40139 -35.541 37.0249 4.73047 -35.6669 37.1227 
5.10305 -35.7631 36.7238 14.8281 -35.1959 31.6686 15.1112 -35.5438 32.2665 
15.5817 -35.3825 31.9081 14.3352 -35.7708 31.8257 15.8754 -35.1176 31.0584 
16.2214 -35.5188 31.4686 16.6393 -35.3904 30.8446 15.1316 -35.0637 30.7769 
14.0257 -35.3793 31.3867 14.2543 -35.2336 31.0311 13.8051 -35.453 30.9903 
16.6708 -35.1041 30.027 17.0667 -35.4464 30.4394 17.4344 -35.4835 29.7723 
15.8598 -35.052 30.002 15.3949 -35.4235 30.0038 14.8157 -35.5947 30.4315 
14.157 -35.7358 30.7342 16.8617 -34.9479 28.9346 17.5532 -35.3896 28.612 
16.2337 -35.0916 29.2275 15.7234 -35.596 29.2628 17.39 -35.644 27.6714 
16.153 -35.5707 28.472 16.5627 -35.4262 27.7128 17.0011 -35.3482 27.4566 
15.0658 -36.2735 44.0164 15.1335 -36.7523 44.2865 15.3872 -36.3873 43.996 
14.5981 -36.5561 44.1106 15.1316 -36.6161 43.732 3.88198 -36.1808 42.6849 
4.15798 -36.5457 43.2965 4.64042 -36.3998 42.8876 3.53791 -36.5257 43.1727 
4.69181 -36.1304 42.0737 5.23308 -36.5481 42.4837 5.50405 -36.5043 41.707 
3.81045 -35.934 41.837 3.144 -36.3707 42.5971 3.116 -36.154 41.9094 
2.65923 -36.7097 42.2034 4.88482 -36.0875 41.001 5.56591 -36.4906 40.7493 
3.97163 -35.9135 41.0112 3.10783 -36.0468 40.9718 2.4547 -36.6873 41.1047 
4.88545 -36.0808 39.9875 5.51581 -36.499 39.756 3.99853 -35.9202 39.9774 
3.11693 -36.0518 39.9436 2.59772 -36.4315 40.1073 4.86632 -36.0752 38.9902 
5.37065 -36.5427 38.7503 4.14596 -35.9354 39.1622 3.2898 -36.125 38.8754 
2.61753 -36.675 39.0662 5.01113 -35.9038 37.7863 5.38855 -36.6756 37.9018 
4.04766 -36.0704 38.2921 3.31185 -36.6423 37.8723 2.85462 -36.6463 38.3063 
5.82309 -36.1436 37.2352 5.94589 -36.803 37.5498 6.30107 -36.8294 36.8323 
4.08988 -36.4153 37.4039 4.46024 -36.5782 36.7319 13.9452 -36.1712 35.8494 
13.96 -36.6385 36.3409 14.5995 -36.3838 35.8454 13.2865 -36.2297 35.7585 
13.2687 -36.4793 36.2593 12.6255 -36.6701 36.2221 5.72468 -36.2769 36.5298 
5.0687 -36.5494 36.3487 14.6794 -36.1372 35.0487 15.1935 -36.5233 35.4249 
15.4667 -36.4769 34.6627 13.8875 -36.0958 35.02 13.3349 -36.3637 35.093 
12.8058 -36.5349 35.6042 14.996 -36.0923 33.844 15.6905 -36.4121 33.8863 
14.1279 -36.11 33.9986 13.4818 -36.437 34.237 15.8866 -36.1539 33.0476 
16.049 -36.4883 33.4698 16.5263 -36.5176 32.9697 14.9131 -35.8769 32.6991 
14.1181 -36.1189 32.9571 13.4777 -36.5018 33.197 6.69208 -36.1933 32.8829 
6.9364 -36.522 33.4343 7.38911 -36.5582 32.8112 5.73627 -36.1031 32.8824 
6.2931 -36.504 33.5489 4.70551 -36.0734 32.8403 5.29636 -36.4808 33.5275 
3.7681 -36.1293 32.7001 4.30534 -36.4689 33.4095 3.53015 -36.5171 33.1351 
16.7625 -36.2012 32.1761 17.0823 -36.67 32.4981 17.348 -36.6142 31.8457 
15.9654 -35.7928 32.1497 14.0954 -36.0919 32.2032 13.6727 -36.6322 32.2535 
8.864 -36.2009 31.6417 9.25673 -36.7837 32.2186 9.57722 -36.3825 31.8528 
8.50051 -36.7096 32.1899 6.99823 -36.0859 31.8584 7.67524 -36.3774 31.9062 
6.01159 -35.9589 31.9988 4.98425 -35.9181 32.0209 4.12673 -35.9074 32.1317 
2.89277 -36.5841 32.6054 3.30419 -36.1644 31.85 2.44922 -36.7566 31.8431 
17.0654 -35.8816 31.0539 17.692 -36.5354 31.0045 13.9478 -35.7397 31.1248 
14.2952 -36.3287 31.1091 14.0071 -36.3755 31.6924 9.84813 -36.0824 30.9503 
10.0063 -36.4182 31.5626 10.5448 -36.462 31.0478 8.82272 -35.9158 30.7794 
8.14787 -36.3883 31.7328 7.82938 -36.039 31.0961 6.97894 -35.959 30.9592 
6.27394 -36.065 30.905 5.2361 -36.0605 31.1297 4.15434 -36.0985 31.2122 
3.36079 -36.6194 30.8984 2.89386 -36.6185 31.368 17.8907 -36.0895 30.1355 
18.1339 -36.6266 30.5012 18.3948 -36.6045 29.8606 15.4787 -36.5064 29.7946 
14.7673 -36.2618 30.5 10.8389 -36.2145 30.2465 11.2156 -36.532 30.4167 
11.3297 -36.5015 29.8189 10.2452 -36.0916 30.0083 9.18117 -36.0302 29.9504 
8.17097 -35.9183 30.0983 7.19902 -36.1098 29.9754 6.41986 -36.597 29.8792 
5.6198 -36.4419 30.3586 4.70138 -36.4599 30.4351 3.94516 -36.5983 30.4439 
18.0728 -36.0185 29.2538 18.404 -36.8116 29.0618 15.642 -36.5946 28.7439 
10.7376 -36.4223 29.5451 9.79833 -36.6159 29.4695 8.86307 -36.6058 29.3769 
8.24524 -36.6152 28.9671 8.13431 -36.1741 29.239 7.58881 -36.3763 29.0358 
7.25651 -36.7229 29.3826 18.0232 -36.3477 28.5967 17.7108 -36.4454 27.9938 
16.2728 -36.4317 27.7491 15.9391 -36.4566 28.287 7.96425 -36.4374 28.7611 
17.0964 -36.0977 27.0148 17.3799 -36.7333 27.0832 16.7122 -36.2918 27.1126 
16.9775 -36.7716 26.6822 15.7488 -37.6202 44.2668 16.1773 -37.5042 44.0073 
15.7964 -36.9454 44.0001 14.8256 -37.6762 44.5534 14.0169 -36.9204 43.8436 
13.9868 -37.3544 44.4604 13.2102 -37.2429 43.7806 13.1634 -37.4465 44.3149 
12.6617 -37.8304 43.9572 4.91443 -37.2153 43.8733 5.09122 -37.5796 44.3463 
5.60869 -37.4533 43.8132 3.81761 -36.9791 43.759 4.21395 -37.4933 44.5124 
2.9314 -37.2231 43.7266 3.27632 -37.4819 44.4298 2.66209 -37.7922 44.1917 
16.8409 -37.1704 42.7505 16.8466 -37.8324 43.2163 17.2818 -37.4305 42.7314 
15.8047 -37.4375 43.5973 16.3956 -37.386 42.846 15.0263 -37.0536 42.8238 
15.6702 -37.6537 43.1206 13.8408 -37.0964 42.9869 13.3027 -37.381 43.137 
12.9606 -37.4915 43.563 5.74469 -37.2311 43.1787 6.20897 -37.5831 43.3661 
6.47388 -37.5365 42.6082 4.96377 -36.8276 43.1688 3.00244 -36.8239 43.0679 
2.4324 -37.5365 43.11 16.9204 -37.0471 41.9717 17.5586 -37.6919 41.8083 
16.0597 -37.0212 42.2282 15.836 -37.3901 42.7256 15.0622 -37.0472 41.6441 
14.1373 -37.1136 41.9662 13.494 -37.4703 42.2833 5.8707 -37.0221 42.2779 
6.53539 -37.5298 41.6717 2.22892 -37.313 42.0256 17.0135 -37.1745 41.1099 
17.274 -37.6978 40.8775 16.1892 -37.0712 41.1508 15.5664 -37.362 41.0868 
15.1037 -37.6594 41.2322 14.541 -37.4703 40.6774 14.1634 -37.2166 41.0449 
13.545 -37.5119 41.2737 6.04303 -37.0255 41.2419 6.52218 -37.5368 40.6974 
2.01441 -37.3001 41.3855 2.01228 -37.2188 40.7675 1.65992 -37.8381 41.0644 
16.7752 -37.4742 40.6137 16.239 -37.7188 40.6897 13.8017 -37.2017 39.9231 
14.4874 -37.4426 39.7333 13.4118 -37.5006 40.3359 6.02998 -37.0308 40.2614 
6.50636 -37.5377 39.7051 2.28043 -37.2603 39.8395 1.86496 -37.6591 40.324 
13.9821 -37.0722 38.8151 14.6643 -37.3743 38.9032 13.1081 -37.4233 39.5592 
13.123 -37.2058 38.8989 12.6229 -37.5776 39.0422 5.88323 -37.1022 39.1463 
6.49687 -37.5339 38.6894 2.44928 -37.4457 38.9053 14.6607 -37.1391 38.0036 
15.0732 -37.6412 38.5488 15.3258 -37.6101 37.8327 14.0004 -36.9727 37.9386 
13.3384 -37.1883 37.8728 12.5554 -37.5465 38.2681 5.80244 -37.2872 38.1274 
6.51989 -37.3692 37.6547 5.21793 -37.3023 38.243 5.2171 -37.5565 37.9631 
4.98526 -37.281 37.9424 4.845 -37.5716 37.9366 2.89716 -36.9913 37.8835 
2.60077 -37.5399 38.1119 15.1439 -37.111 36.9446 15.6832 -37.5446 36.988 
14.0643 -37.0254 37.0452 13.2658 -37.4393 37.0827 12.8138 -37.6312 37.4929 
11.8368 -37.5746 37.3733 12.3658 -37.5979 37.1396 11.935 -37.2044 36.8541 
11.1287 -37.2858 36.7757 11.2676 -37.6366 37.2731 10.7703 -37.4939 37.043 
6.67258 -37.5181 36.8013 5.20278 -37.3306 37.8123 3.96032 -37.0314 36.9646 
3.51211 -37.2649 37.1383 2.94774 -37.4869 37.4193 15.7771 -37.1745 36.1593 
16.0851 -37.654 36.5165 16.3094 -37.6165 35.8601 14.997 -36.7994 36.0904 
13.0322 -37.157 36.6933 11.9344 -37.0127 35.8441 11.3828 -37.5566 36.0603 
10.8364 -37.4843 36.7517 5.90925 -36.9596 35.8738 6.51072 -37.4335 35.8693 
5.21661 -37.0026 35.8214 4.54017 -37.2823 36.0738 3.9061 -37.4744 36.5709 
15.8531 -36.9815 35.2391 16.5358 -37.5925 34.8221 12.6945 -36.8039 34.7865 
11.899 -37.1796 34.7697 11.6751 -37.4956 34.9569 5.98165 -37.1563 34.8832 
6.64277 -37.4919 34.9117 4.97059 -37.1796 34.9182 4.46897 -37.5779 35.3045 
16.1822 -36.8794 33.986 16.6977 -37.4236 33.8576 12.9389 -36.8399 33.7422 
12.2296 -37.2148 33.8076 11.7407 -37.4803 34.1403 6.87326 -37.048 33.9491 
7.12728 -37.6177 34.399 7.56193 -37.4763 33.77 5.87537 -36.8589 34.0521 
5.01183 -36.8846 34.1317 3.93287 -37.6128 34.601 3.83394 -36.9979 33.9083 
2.94784 -37.2425 33.7255 3.22262 -37.5241 34.187 2.71994 -37.7708 33.9538 
16.8482 -37.0614 33.1754 17.088 -37.6516 33.515 17.356 -37.4335 32.7956 
12.995 -37.0991 32.8731 12.4862 -37.4873 33.0166 12.0584 -37.6068 33.4637 
7.99395 -37.1247 32.9507 8.14705 -37.6035 33.336 8.50334 -37.5408 32.934 
3.07181 -36.8809 33.2475 2.42236 -37.5123 33.2401 17.7087 -37.3692 31.8986 
14.1691 -36.9415 31.6208 14.6344 -37.4372 31.739 13.8826 -37.4115 32.2631 
13.155 -37.5965 32.672 10.0572 -36.8564 31.8621 10.0124 -37.6612 32.2936 
10.5405 -37.4384 31.8699 9.03787 -37.5543 32.6032 7.94551 -36.6659 32.2295 
1.93619 -37.1296 31.9748 2.10443 -37.1705 32.4423 1.64384 -37.8072 32.0784 
18.0019 -37.0568 31.1104 18.1157 -37.6328 31.5648 18.4112 -37.4175 30.8321 
15.0472 -37.0417 30.9067 15.6471 -37.8209 30.7953 15.201 -37.6929 31.5363 
11.9093 -37.2035 30.8975 12.1784 -37.8101 31.297 12.5533 -37.4208 30.8676 
11.0171 -36.9699 31.1337 11.3079 -37.7186 31.5677 2.94803 -36.9763 30.9497 
2.44498 -37.473 30.9278 1.92733 -37.4858 31.4598 18.6049 -37.5025 29.9351 
15.9485 -37.2674 30.1863 16.2493 -37.5362 29.9292 16.1418 -37.5779 30.2032 
12.7662 -37.0968 29.9519 12.9816 -37.4546 30.551 13.4768 -37.5106 29.9983 
11.746 -36.8321 30.0331 5.87254 -36.7735 29.8235 5.27953 -36.9775 29.7253 
4.30234 -37.055 29.9006 3.53491 -37.22 30.1012 2.97978 -37.4594 30.4246 
18.4525 -37.783 29.0704 16.0095 -37.3887 29.672 15.5658 -37.3972 29.1785 
13.803 -37.1322 28.864 14.1575 -37.6033 29.3582 14.6075 -37.437 28.7594 
12.9857 -36.9561 28.9311 12.2895 -37.0628 28.905 11.1747 -36.9322 29.0261 
9.94282 -36.9573 28.8061 9.44836 -37.6019 28.8236 9.17981 -37.5141 29.3651 
8.04192 -37.5186 29.2702 7.83541 -36.7152 28.94 6.79294 -37.4884 29.3789 
6.08575 -37.1731 29.2586 6.27917 -37.6699 29.0027 5.64742 -37.4326 29.0483 
4.98892 -37.7732 29.4005 3.79269 -37.8014 29.617 18.0911 -37.2384 28.4054 
17.6945 -37.5385 27.7487 15.8314 -37.0526 27.9487 15.2321 -37.3446 28.5649 
[...]
CELL_DATA 36572
SCALARS scalars float
LOOKUP_TABLE default
2025 2025 2025 2025 2025 2025 2025 2025 2025 
2025 2025 2025 2025 2025 2025 2025 2025 2025 
2025 2025 2025 2025 2025 2025 2025 2025 2025 
2025 2025 2025 2025 2025 2025 2025 2025 2025 
2025 2025 2025 2025 2025 2025 2025 2025 2025 
2025 2025 2025 2025 2025 2025 2025 2025 2025 
2025 2025 2025 2025 2025 2025 2025 2025 2025 
2025 2025 2025 2025 2025 2025 2025 2025 2025 
2025 2025 2025 2025 2025 2025 2025 2025 2025 
2025 2025 2025 2025 2025 2025 2025 2025 2025 
2025 2025 2025 2025 2025 2025 2025 2025 2025 
2025 2025 2025 2025 2025 2025 2025 2025 2025 
2025 2025 2025 2025 2025 2025 2025 2025 2025 
2025 2025 2025 2025 2025 2025 2025 2025 2025 
2025 2025 2025 2025 2025 2025 2025 2025 2025 
2025 2025 2025 2025 2025 2025 2025 2025 2025 
2025 2025 2025 2025 2025 2025 2025 2025 2025 
2025 2025 2025 2025 2025 2025 2025 2025 2025 
2025 2025 2025 2025 2025 2025 2025 2025 2025 
2025 2025 2025 2025 2025 2025 2025 2025 2025 
2025 2025 2025 2025 2025 2025 2025 2025 2025 
2025 2025 2025 2025 2025 2025 2025 2025 2025 
2025 2025 2025 2025 2025 2025 2025 2025 2025 
2025 2025 2025 2025 2025 2025 2025 2025 2025 
2025 2025 2025 2025 2025 2025 2025 2025 2025 
2025 2025 2025 2025 2025 2025 2025 2025 2025 
2025 2025 2025 2025 2025 2025 2025 2025 2025 
2025 2025 2025 2025 2025 2025 2025 2025 2025 
2025 2025 2025 2025 2025 2025 2025 2025 2025 
2025 2025 2025 2025 2025 2025 2025 2025 2025 
2025 2025 2025 2025 2025 2025 2025 2025 2025 
2025 2025 2025 2025 2025 2025 2025 2025 2025 
2025 2025 2025 2025 2025 2025 2025 2025 2025 
2025 2025 2025 2025 2025 2025 2025 2025 2025 
2025 2025 2025 2025 2025 2025 2025 2025 2025 
2025 2025 2025 2025 2025 2025 2025 2025 2025 
2025 2025 2025 2025 2025 2025 2025 2025 2025 
2025 2025 2025 2025 2025 2025 2025 2025 2025 
2025 2025 2025 2025 2025 2025 2025 2025 2025 
2025 2025 2025 2025 2025 2025 2025 2025 2025 
2025 2025 2025 2025 2025 2025 2025 2025 2025 
2025 2025 2025 2025 2025 2025 2025 2025 2025 
2025 2025 2025 2025 2025 2025 2025 2025 2025 
2025 2025 2025 2025 2025 2025 2025 2025 2025 
2025 2025 2025 2025 2025 2025 2025 2025 2025 
2025 2025 2025 2025 2025 2025 2025 2025 2025 
2025 2025 2025 2025 2025 2025 2025 2025 2025 
2025 2025 2025 2025 2025 2025 2025 2025 2025 
2025 2025 2025 2025 2025 2025 2025 2025 2025 
2025 2025 2025 2025 2025 2025 2025 2025 2025 
2025 2025 2025 2025 2025 2025 2025 2025 2025 
2025 2025 2025 2025 2025 2025 2025 2025 2025 
2025 2025 2025 2025 2025 2025 2025 2025 2025 
2025 2025 2025 2025 2025 2025 2025 2025 2025 
2025 2025 2025 2025 2025 2025 2025 2025 2025 
2025 2025 2025 2025 2025 2025 2025 2025 2025 
2025 2025 2025 2025 2025 2025 2025 2025 2025 
2025 2025 2025 2025 2025 2025 2025 2025 2025 
2025 2025 2025 2025 2025 2025 2025 2025 2025 
2025 2025 2025 2025 2025 2025 2025 2025 2025 
2025 2025 2025 2025 2025 2025 2025 2025 2025 
2025 2025 2025 2025 2025 2025 2025 2025 2025 
2025 2025 2025 2025 2025 2025 2025 2025 2025 
2025 2025 2025 2025 2025 2025 2025 2025 2025 
2025 2025 2025 2025 2025 2025 2025 2025 2025 
2025 2025 2025 2025 2025 2025 2025 2025 2025 
2025 2025 2025 2025 2025 2025 2025 2025 2025 
2025 2025 2025 2025 2025 2025 2025 2025 2025 
2025 2025 2025 2025 2025 2025 2025 2025 2025 
2025 2025 2025 2025 2025 2025 2025 2025 2025 
2025 2025 2025 2025 2025 2025 2025 2025 2025 
2025 2025 2025 2025 2025 2025 2025 2025 2025 
2025 2025 2025 2025 2025 2025 2025 2025 2025 
2025 2025 2025 2025 2025 2025 2025 2025 2025 
2025 2025 2025 2025 2025 2025 2025 2025 2025 
2025 2025 2025 2025 2025 2025 2025 2025 2025 
2025 2025 2025 2025 2025 2025 2025 2025 2025 
2025 2025 2025 2025 2025 2025 2025 2025 2025 
2025 2025 2025 2025 2025 2025 2025 2025 2025 
2025 2025 2025 2025 2025 2025 2025 2025 2025 
2025 2025 2025 2025 2025 2025 2025 2025 2025 
2025 2025 2025 2025 2025 2025 2025 2025 2025 
2025 2025 2025 2025 2025 2025 2025 2025 2025 
2025 2025 2025 2025 2025 2025 2025 2025 2025 
2025 2025 2025 2025 2025 2025 2025 2025 2025 
2025 2025 2025 2025 2025 2025 2025 2025 2025 
2025 2025 2025 2025 2025 2025 2025 2025 2025 
2025 2025 2025 2025 2025 2025 2025 2025 2025 
2025 2025 2025 2025 2025 2025 2025 2025 2025 
2025 2025 2025 2025 2025 2025 2025 2025 2025 
2025 2025 2025 2025 2025 2025 2025 2025 2025 
2025 2025 2025 2025 2025 2025 2025 2025 2025 
2025 2025 2025 2025 2025 2025 2025 2025 2025 
2025 2025 2025 2025 2025 2025 2025 2025 2025 
2025 2025 2025 2025 2025 2025 2025 2025 2025 
2025 2025 2025 2025 2025 2025 2025 2025 2025 
2025 2025 2025 2025 2025 2025 2025 2025 2025 
2025 2025 2025 2025 2025 2025 2025 2025 2025 
2025 2025 2025 2025 2025 2025 2025 2025 2025 
2025 2025 2025 2025 2025 2025 2025 2025 2025 
2025 2025 2025 2025 2025 2025 2025 2025 2025 
2025 2025 2025 2025 2025 2025 2025 2025 2025 
2025 2025 2025 2025 2025 2025 2025 2025 2025 
2025 2025 2025 2025 2025 2025 2025 2025 2025 
2025 2025 2025 2025 2025 2025 2025 2025 2025 
2025 2025 2025 2025 2025 2025 2025 2025 2025 
2025 2025 2025 2025 2025 2025 2025 2025 2025 
2025 2025 2025 2025 2025 2025 2025 2025 2025 
2025 2025 2025 2025 2025 2025 2025 2025 2025 
2025 2025 2025 2025 2025 2025 2025 2025 2025 
2025 2025 2025 2025 2025 2025 2025 2025 2025 
2025 2025 2025 2025 2025 2025 2025 2025 2025 
2025 2025 2025 2025 2025 2025 2025 2025 2025 
2025 2025 2025 2025 2025 2025 2025 2025 2025 
2025 2025 2025 2025 2025 2025 2025 2025 2025 
2025 2025 2025 2025 2025 2025 2025 2025 2025 
2025 2025 2025 2025 2025 2025 2025 2025 2025 
2025 2025 2025 2025 2025 2025 2025 2025 2025 
2025 2025 2025 2025 2025 2025 2025 2025 2025 
2025 2025 2025 2025 2025 2025 2025 2025 2025 
2025 2025 2025 2025 2025 2025 2025 2025 2025 
2025 2025 2025 2025 2025 2025 2025 2025 2025 
2025 2025 2025 2025 2025 2025 2025 2025 2025 
2025 2025 2025 2025 2025 2025 2025 2025 2025 
2025 2025 2025 2025 2025 2025 2025 2025 2025 
2025 2025 2025 2025 2025 2025 2025 2025 2025 
2025 2025 2025 2025 2025 2025 2025 2025 2025 
2025 2025 2025 2025 2025 2025 2025 2025 2025 
2025 2025 2025 2025 2025 2025 2025 2025 2025 
2025 2025 2025 2025 2025 2025 2025 2025 2025 
2025 2025 2025 2025 2025 2025 2025 2025 2025 
2025 2025 2025 2025 2025 2025 2025 2025 2025 
2025 2025 2025 2025 2025 2025 2025 2025 2025 
2025 2025 2025 2025 2025 2025 2025 2025 2025 
2025 2025 2025 2025 2025 2025 2025 2025 2025 
2025 2025 2025 2025 2025 2025 2025 2025 2025 
2025 2025 2025 2025 2025 2025 2025 2025 2025 
2025 2025 2025 2025 2025 2025 2025 2025 2025 
2025 2025 2025 2025 2025 2025 2025 2025 2025 
2025 2025 2025 2025 2025 2025 2025 2025 2025 
2025 2025 2025 2025 2025 2025 2025 2025 2025 
2025 2025 2025 2025 2025 2025 2025 2025 2025 
2025 2025 2025 2025 2025 2025 2025 2025 2025 
2025 2025 2025 2025 2025 2025 2025 2025 2025 
2025 2025 2025 2025 2025 2025 2025 2025 2025 
2025 2025 2025 2025 2025 2025 2025 2025 2025 
2025 2025 2025 2025 2025 2025 2025 2025 2025 
2025 2025 2025 2025 2025 2025 2025 2025 2025 
2025 2025 2025 2025 2025 2025 2025 2025 2025 
2025 2025 2025 2025 2025 2025 2025 2025 2025 
2025 2025 2025 2025 2025 2025 2025 2025 2025 
2025 2025 2025 2025 2025 2025 2025 2025 2025 
2025 2025 2025 2025 2025 2025 2025 2025 2025 
2025 2025 2025 2025 2025 2025 2025 2025 2025 
2025 2025 2025 2025 2025 2025 2025 2025 2025 
2025 2025 2025 2025 2025 2025 2025 2025 2025 
2025 2025 2025 2025 2025 2025 2025 2025 2025 
2025 2025 2025 2025 2025 2025 2025 2025 2025 
2025 2025 2025 2025 2025 2025 2025 2025 2025 
2025 2025 2025 2025 2025 2025 2025 2025 2025 
2025 2025 2025 2025 2025 2025 2025 2025 2025 
2025 2025 2025 2025 2025 2025 2025 2025 2025 
2025 2025 2025 2025 2025 2025 2025 2025 2025 
2025 2025 2025 2025 2025 2025 2025 2025 2025 
2025 2025 2025 2025 2025 2025 2025 2025 2025 
2025 2025 2025 2025 2025 2025 2025 2025 2025 
2025 2025 2025 2025 2025 2025 2025 2025 2025 
2025 2025 2025 2025 2025 2025 2025 2025 2025 
2025 2025 2025 2025 2025 2025 2025 2025 2025 
2025 2025 2025 2025 2025 2025 2025 2025 2025 
2025 2025 2025 2025 2025 2025 2025 2025 2025 
2025 2025 2025 2025 2025 2025 2025 2025 2025 
2025 2025 2025 2025 2025 2025 2025 2025 2025 
2025 2025 2025 2025 2025 2025 2025 2025 2025 
2025 2025 2025 2025 2025 2025 2025 2025 2025 
2025 2025 2025 2025 2025 2025 2025 2025 2025 
2025 2025 2025 2025 2025 2025 2025 2025 2025 
2025 2025 2025 2025 2025 2025 2025 2025 2025 
2025 2025 2025 2025 2025 2025 2025 2025 2025 
2025 2025 2025 2025 2025 2025 2025 2025 2025 
2025 2025 2025 2025 2025 2025 2025 2025 2025 
2025 2025 2025 2025 2025 2025 2025 2025 2025 
2025 2025 2025 2025 2025 2025 2025 2025 2025 
2025 2025 2025 2025 2025 2025 2025 2025 2025 
2025 2025 2025 2025 2025 2025 2025 2025 2025 
2025 2025 2025 2025 2025 2025 2025 2025 2025 
2025 2025 2025 2025 2025 2025 2025 2025 2025 
2025 2025 2025 2025 2025 2025 2025 2025 2025 
2025 2025 2025 2025 2025 2025 2025 2025 2025 
2025 2025 2025 2025 2025 2025 2025 2025 2025 
2025 2025 2025 2025 2025 2025 2025 2025 2025 
2025 2025 2025 2025 2025 2025 2025 2025 2025 
2025 2025 2025 2025 2025 2025 2025 2025 2025 
2025 2025 2025 2025 2025 2025 2025 2025 2025 
2025 2025 2025 2025 2025 2025 2025 2025 2025 
2025 2025 2025 2025 2025 2025 2025 2025 2025 
2025 2025 2025 2025 2025 2025 2025 2025 2025 
2025 2025 2025 2025 2025 2025 2025 2025 2025 
2025 2025 2025 2025 2025 2025 2025 2025 2025 
2025 2025 2025 2025 2025 2025 2025 2025 2025 
2025 2025 2025 2025 2025 2025 2025 2025 2025 
2025 2025 2025 2025 2025 2025 2025 2025 2025 
2025 2025 2025 2025 2025 2025 2025 2025 2025 
2025 2025 2025 2025 2025 2025 2025 2025 2025 
2025 2025 2025 2025 2025 2025 2025 2025 2025 
2025 2025 2025 2025 2025 2025 2025 2025 2025 
2025 2025 2025 2025 2025 2025 2025 2025 2025 
2025 2025 2025 2025 2025 2025 2025 2025 2025 
2025 2025 2025 2025 2025 2025 2025 2025 2025 
2025 2025 2025 2025 2025 2025 2025 2025 2025 
2025 2025 2025 2025 2025 2025 2025 2025 2025 
2025 2025 2025 2025 2025 2025 2025 2025 2025 
2025 2025 2025 2025 2025 2025 2025 2025 2025 
2025 2025 2025 2025 2025 2025 2025 2025 2025 
2025 2025 2025 2025 2025 2025 2025 2025 2025 
2025 2025 2025 2025 2025 2025 2025 2025 2025 
2025 2025 2025 2025 2025 2025 2025 2025 2025 
2025 2025 2025 2025 2025 2025 2025 2025 2025 
2025 2025 2025 2025 2025 2025 2025 2025 2025 
2025 2025 2025 2025 2025 2025 2025 2025 2025 
2025 2025 2025 2025 2025 2025 2025 2025 2025 
2025 2025 2025 2025 2025 2025 2025 2025 2025 
2025 2025 2025 2025 2025 2025 2025 2025 2025 
2025 2025 2025 2025 2025 2025 2025 2025 2025 
2025 2025 2025 2025 2025 2025 2025 2025 2025 
2025 2025 2025 2025 2025 2025 2025 2025 2025 
2025 2025 2025 2025 2025 2025 2025 2025 2025 
2025 2025 2025 2025 2025 2025 2025 2025 2025 
2025 2025 2025 2025 2025 2025 2025 2025 2025 
2025 2025 2025 2025 2025 2025 2025 2025 2025 
2025 2025 2025 2025 2025 2025 2025 2025 2025 
2025 2025 2025 2025 2025 2025 2025 2025 2025 
2025 2025 2025 2025 2025 2025 2025 2025 2025 
2025 2025 2025 2025 2025 2025 2025 2025 2025 
2025 2025 2025 2025 2025 2025 2025 2025 2025 
2025 2025 2025 2025 2025 2025 2025 2025 2025 
2025 2025 2025 2025 2025 2025 2025 2025 2025 
2025 2025 2025 2025 2025 2025 2025 2025 2025 
2025 2025 2025 2025 2025 2025 2025 2025 2025 
2025 2025 2025 2025 2025 2025 2025 2025 2025 
2025 2025 2025 2025 2025 2025 2025 2025 2025 
2025 2025 2025 2025 2025 2025 2025 2025 2025 
2025 2025 2025 2025 2025 2025 2025 2025 2025 
2025 2025 2025 2025 2025 2025 2025 2025 2025 
2025 2025 2025 2025 2025 2025 2025 2025 2025 
2025 2025 2025 2025 2025 2025 2025 2025 2025 
2025 2025 2025 2025 2025 2025 2025 2025 2025 
2025 2025 2025 2025 2025 2025 2025 2025 2025 
2025 2025 2025 2025 2025 2025 2025 2025 2025 
2025 2025 2025 2025 2025 2025 2025 2025 2025 
2025 2025 2025 2025 2025 2025 2025 2025 2025 
2025 2025 2025 2025 2025 2025 2025 2025 2025 
2025 2025 2025 2025 2025 2025 2025 2025 2025 
2025 2025 2025 2025 2025 2025 2025 2025 2025 
2025 2025 2025 2025 2025 2025 2025 2025 2025 
2025 2025 2025 2025 2025 2025 2025 2025 2025 
2025 2025 2025 2025 2025 2025 2025 2025 2025 
2025 2025 2025 2025 2025 2025 2025 2025 2025 
2025 2025 2025 2025 2025 2025 2025 2025 2025 
2025 2025 2025 2025 2025 2025 2025 2025 2025 
2025 2025 2025 2025 2025 2025 2025 2025 2025 
2025 2025 2025 2025 2025 2025 2025 2025 2025 
2025 2025 2025 2025 2025 2025 2025 2025 2025 
2025 2025 2025 2025 2025 2025 2025 2025 2025 
2025 2025 2025 2025 2025 2025 2025 2025 2025 
2025 2025 2025 2025 2025 2025 2025 2025 2025 
2025 2025 2025 2025 2025 2025 2025 2025 2025 
2025 2025 2025 2025 2025 2025 2025 2025 2025 
2025 2025 2025 2025 2025 2025 2025 2025 2025 
2025 2025 2025 2025 2025 2025 2025 2025 2025 
2025 2025 2025 2025 2025 2025 2025 2025 2025 
2025 2025 2025 2025 2025 2025 2025 2025 2025 
2025 2025 2025 2025 2025 2025 2025 2025 2025 
2025 2025 2025 2025 2025 2025 2025 2025 2025 
2025 2025 2025 2025 2025 2025 2025 2025 2025 
2025 2025 2025 2025 2025 2025 2025 2025 2025 
2025 2025 2025 2025 2025 2025 2025 2025 2025 
2025 2025 2025 2025 2025 2025 2025 2025 2025 
2025 2025 2025 2025 2025 2025 2025 2025 2025 
2025 2025 2025 2025 2025 2025 2025 2025 2025 
2025 2025 2025 2025 2025 2025 2025 2025 2025 
2025 2025 2025 2025 2025 2025 2025 2025 2025 
2025 2025 2025 2025 2025 2025 2025 2025 2025 
2025 2025 2025 2025 2025 2025 2025 2025 2025 
2025 2025 2025 2025 2025 2025 2025 2025 2025 
2025 2025 2025 2025 2025 2025 2025 2025 2025 
2025 2025 2025 2025 2025 2025 2025 2025 2025 
2025 2025 2025 2025 2025 2025 2025 2025 2025 
2025 2025 2025 2025 2025 2025 2025 2025 2025 
2025 2025 2025 2025 2025 2025 2025 2025 2025 
2025 2025 2025 2025 2025 2025 2025 2025 2025 
2025 2025 2025 2025 2025 2025 2025 2025 2025 
2025 2025 2025 2025 2025 2025 2025 2025 2025 
2025 2025 2025 2025 2025 2025 2025 2025 2025 
2025 2025 2025 2025 2025 2025 2025 2025 2025 
2025 2025 2025 2025 2025 2025 2025 2025 2025 
2025 2025 2025 2025 2025 2025 2025 2025 2025 
2025 2025 2025 2025 2025 2025 2025 2025 2025 
2025 2025 2025 2025 2025 2025 2025 2025 2025 
2025 2025 2025 2025 2025 2025 2025 2025 2025 
2025 2025 2025 2025 2025 2025 2025 2025 2025 
2025 2025 2025 2025 2025 2025 2025 2025 2025 
2025 2025 2025 2025 2025 2025 2025 2025 2025 
2025 2025 2025 2025 2025 2025 2025 2025 2025 
2025 2025 2025 2025 2025 2025 2025 2025 2025 
2025 2025 2025 2025 2025 2025 2025 2025 2025 
2025 2025 2025 2025 2025 2025 2025 2025 2025 
2025 2025 2025 2025 2025 2025 2025 2025 2025 
2025 2025 2025 2025 2025 2025 2025 2025 2025 
2025 2025 2025 2025 2025 2025 2025 2025 2025 
2025 2025 2025 2025 2025 2025 2025 2025 2025 
2025 2025 2025 2025 2025 2025 2025 2025 2025 
2025 2025 2025 2025 2025 2025 2025 2025 2025 
2025 2025 2025 2025 2025 2025 2025 2025 2025 
2025 2025 2025 2025 2025 2025 2025 2025 2025 
2025 2025 2025 2025 2025 2025 2025 2025 2025 
2025 2025 2025 2025 2025 2025 2025 2025 2025 
2025 2025 2025 2025 2025 2025 2025 2025 2025 
2025 2025 2025 2025 2025 2025 2025 2025 2025 
2025 2025 2025 2025 2025 2025 2025 2025 2025 
2025 2025 2025 2025 2025 2025 2025 2025 2025 
2025 2025 2025 2025 2025 2025 2025 2025 2025 
2025 2025 2025 2025 2025 2025 2025 2025 2025 
2025 2025 2025 2025 2025 2025 2025 2025 2025 
2025 2025 2025 2025 2025 2025 2025 2025 2025 
2025 2025 2025 2025 2025 2025 2025 2025 2025 
2025 2025 2025 2025 2025 2025 2025 2025 2025 
2025 2025 2025 2025 2025 2025 2025 2025 2025 
2025 2025 2025 2025 2025 2025 2025 2025 2025 
2025 2025 2025 2025 2025 2025 2025 2025 2025 
2025 2025 2025 2025 2025 2025 2025 2025 2025 
2025 2025 2025 2025 2025 2025 2025 2025 2025 
2025 2025 2025 2025 2025 2025 2025 2025 2025 
2025 2025 2025 2025 2025 2025 2025 2025 2025 
2025 2025 2025 2025 2025 2025 2025 2025 2025 
2025 2025 2025 2025 2025 2025 2025 2025 2025 
2025 2025 2025 2025 2025 2025 2025 2025 2025 
2025 2025 2025 2025 2025 2025 2025 2025 2025 
2025 2025 2025 2025 2025 2025 2025 2025 2025 
2025 2025 2025 2025 2025 2025 2025 2025 2025 
2025 2025 2025 2025 2025 2025 2025 2025 2025 
2025 2025 2025 2025 2025 2025 2025 2025 2025 
2025 2025 2025 2025 2025 2025 2025 2025 2025 
2025 2025 2025 2025 2025 2025 2025 2025 2025 
2025 2025 2025 2025 2025 2025 2025 2025 2025 
2025 2025 2025 2025 2025 2025 2025 2025 2025 
2025 2025 2025 2025 2025 2025 2025 2025 2025 
2025 2025 2025 2025 2025 2025 2025 2025 2025 
2025 2025 2025 2025 2025 2025 2025 2025 2025 
2025 2025 2025 2025 2025 2025 2025 2025 2025 
2025 2025 2025 2025 2025 2025 2025 2025 2025 
2025 2025 2025 2025 2025 2025 2025 2025 2025 
2025 2025 2025 2025 2025 2025 2025 2025 2025 
2025 2025 2025 2025 2025 2025 2025 2025 2025 
2025 2025 2025 2025 2025 2025 2025 2025 2025 
2025 2025 2025 2025 2025 2025 2025 2025 2025 
2025 2025 2025 2025 2025 2025 2025 2025 2025 
2025 2025 2025 2025 2025 2025 2025 2025 2025 
2025 2025 2025 2025 2025 2025 2025 2025 2025 
2025 2025 2025 2025 2025 2025 2025 2025 2025 
2025 2025 2025 2025 2025 2025 2025 2025 2025 
2025 2025 2025 2025 2025 2025 2025 2025 2025 
2025 2025 2025 2025 2025 2025 2025 2025 2025 
2025 2025 2025 2025 2025 2025 2025 2025 2025 
2025 2025 2025 2025 2025 2025 2025 2025 2025 
2025 2025 2025 2025 2025 2025 2025 2025 2025 
2025 2025 2025 2025 2025 2025 2025 2025 2025 
2025 2025 2025 2025 2025 2025 2025 2025 2025 
2025 2025 2025 2025 2025 2025 2025 2025 2025 
2025 2025 2025 2025 2025 2025 2025 2025 2025 
2025 2025 2025 2025 2025 2025 2025 2025 2025 
2025 2025 2025 2025 2025 2025 2025 2025 2025 
2025 2025 2025 2025 2025 2025 2025 2025 2025 
2025 2025 2025 2025 2025 2025 2025 2025 2025 
2025 2025 2025 2025 2025 2025 2025 2025 2025 
2025 2025 2025 2025 2025 2025 2025 2025 2025 
2025 2025 2025 2025 2025 2025 2025 2025 2025 
2025 2025 2025 2025 2025 2025 2025 2025 2025 
2025 2025 2025 2025 2025 2025 2025 2025 2025 
2025 2025 2025 2025 2025 2025 2025 2025 2025 
2025 2025 2025 2025 2025 2025 2025 2025 2025 
2025 2025 2025 2025 2025 2025 2025 2025 2025 
2025 2025 2025 2025 2025 2025 2025 2025 2025 
2025 2025 2025 2025 2025 2025 2025 2025 2025 
2025 2025 2025 2025 2025 2025 2025 2025 2025 
2025 2025 2025 2025 2025 2025 2025 2025 2025 
2025 2025 2025 2025 2025 2025 2025 2025 2025 
2025 2025 2025 2025 2025 2025 2025 2025 2025 
2025 2025 2025 2025 2025 2025 2025 2025 2025 
2025 2025 2025 2025 2025 2025 2025 2025 2025 
2025 2025 2025 2025 2025 2025 2025 2025 2025 
2025 2025 2025 2025 2025 2025 2025 2025 2025 
2025 2025 2025 2025 2025 2025 2025 2025 2025 
2025 2025 2025 2025 2025 2025 2025 2025 2025 
2025 2025 2025 2025 2025 2025 2025 2025 2025 
2025 2025 2025 2025 2025 2025 2025 2025 2025 
2025 2025 2025 2025 2025 2025 2025 2025 2025 
2025 2025 2025 2025 2025 2025 2025 2025 2025 
2025 2025 2025 2025 2025 2025 2025 2025 2025 
2025 2025 2025 2025 2025 2025 2025 2025 2025 
2025 2025 2025 2025 2025 2025 2025 2025 2025 
2025 2025 2025 2025 2025 2025 2025 2025 2025 
2025 2025 2025 2025 2025 2025 2025 2025 2025 
2025 2025 2025 2025 2025 2025 2025 2025 2025 
2025 2025 2025 2025 2025 2025 2025 2025 2025 
2025 2025 2025 2025 2025 2025 2025 2025 2025 
2025 2025 2025 2025 2025 2025 2025 2025 2025 
2025 2025 2025 2025 2025 2025 2025 2025 2025 
2025 2025 2025 2025 2025 2025 2025 2025 2025 
2025 2025 2025 2025 2025 2025 2025 2025 2025 
2025 2025 2025 2025 2025 2025 2025 2025 2025 
2025 2025 2025 2025 2025 2025 2025 2025 2025 
2025 2025 2025 2025 2025 2025 2025 2025 2025 
2025 2025 2025 2025 2025 2025 2025 2025 2025 
2025 2025 2025 2025 2025 2025 2025 2025 2025 
2025 2025 2025 2025 2025 2025 2025 2025 2025 
2025 2025 2025 2025 2025 2025 2025 2025 2025 
2025 2025 2025 2025 2025 2025 2025 2025 2025 
2025 2025 2025 2025 2025 2025 2025 2025 2025 
2025 2025 2025 2025 2025 2025 2025 2025 2025 
2025 2025 2025 2025 2025 2025 2025 2025 2025 
2025 2025 2025 2025 2025 2025 2025 2025 2025 
2025 2025 2025 2025 2025 2025 2025 2025 2025 
2025 2025 2025 2025 2025 2025 2025 2025 2025 
2025 2025 2025 2025 2025 2025 2025 2025 2025 
2025 2025 2025 2025 2025 2025 2025 2025 2025 
2025 2025 2025 2025 2025 2025 2025 2025 2025 
2025 2025 2025 2025 2025 2025 2025 2025 2025 
2025 2025 2025 2025 2025 2025 2025 2025 2025 
2025 2025 2025 2025 2025 2025 2025 2025 2025 
2025 2025 2025 2025 2025 2025 2025 2025 2025 
2025 2025 2025 2025 2025 2025 2025 2025 2025 
2025 2025 2025 2025 2025 2025 2025 2025 2025 