# vtk DataFile Version 4.0
vtk output
ASCII
DATASET POLYDATA
POINTS 5238 float
-43.3448 44.8343 -2.02419 -42.7843 44.2665 -1.63858 -42.7091 44.4983 -2.12144 
-44.2126 44.9073 -2.25475 -43.6456 44.5119 -1.72663 -44.2918 44.4296 -2.08004 
-43.1525 44.6904 -2.57013 -43.4056 44.4226 -3.12394 -43.8648 44.9076 -2.73333 
-44.9628 44.3532 -2.54647 -44.7171 44.8224 -2.94189 -45.4892 44.331 -3.16083 
-44.2111 44.3279 -3.36208 -44.9466 44.502 -3.33456 -42.2046 43.9995 -2.12684 
-42.2954 43.3583 -1.70238 -41.7837 43.4246 -2.30027 -43.126 43.697 -1.60525 
-43.833 43.9526 -1.90078 -43.5807 43.157 -2.00754 -41.9389 43.843 -2.91463 
-41.5789 43.4286 -3.16716 -42.5997 44.0996 -3.06506 -44.4015 43.5475 -2.36884 
-45.2257 43.3992 -2.56817 -46.3488 43.95 -3.31509 -45.8311 43.7431 -2.76483 
-46.5457 43.2397 -3.01941 -41.9948 43.7136 -3.78179 -41.6715 43.3025 -3.89473 
-42.3704 43.5939 -3.99436 -43.0279 43.4173 -3.73181 -44.2346 43.2958 -3.67451 
-45.0549 43.8024 -3.57933 -45.9398 43.9101 -3.76692 -45.6096 43.1782 -4.0037 
-46.9694 43.5731 -3.55381 -46.7566 43.8018 -3.98453 -47.3313 43.2043 -4.11619 
-41.9961 43.4756 -4.25493 -46.2895 43.526 -4.2801 -46.9505 43.2679 -4.5604 
-41.0158 42.8182 -2.28875 -41.0991 42.1972 -1.80195 -40.5074 42.5713 -2.18269 
-41.9241 42.9546 -1.9839 -41.604 42.354 -1.90847 -42.3221 42.5485 -1.7725 
-42.9129 42.7929 -1.6438 -43.4996 42.4585 -1.9099 -40.2088 42.7984 -2.78337 
-39.7374 42.202 -2.58375 -39.442 42.362 -3.09782 -41.0532 42.9281 -3.18314 
-41.6603 42.8092 -2.32668 -44.1492 42.5143 -2.36919 -44.8893 42.6453 -2.58163 
-45.7938 42.5346 -2.55068 -46.5901 42.1897 -2.81448 -40.1099 42.2497 -3.38983 
-41.1253 42.2613 -3.50936 -41.875 42.7299 -3.72557 -42.1377 43.2587 -4.09167 
-43.1008 42.8484 -4.04337 -42.6492 42.304 -3.98717 -43.6766 42.8599 -4.01924 
-44.4084 42.5876 -3.93284 -44.9621 42.7728 -3.78867 -45.5261 42.4539 -4.17651 
-47.127 42.79 -3.50014 -47.4697 42.3601 -4.07469 -43.249 42.4556 -4.26025 
-43.9365 42.2585 -4.34127 -46.2542 42.8192 -4.59537 -46.978 42.7616 -5.01652 
-46.6817 42.4249 -5.24706 -47.4669 42.4134 -4.91875 -47.1962 42.3351 -5.5272 
-48.0261 41.6795 0.968343 -48.0377 41.5866 1.26471 -47.7938 41.461 0.958104 
-48.4378 41.2994 0.895939 -48.0913 41.3969 0.516788 -43.1517 41.9764 -1.34415 
-43.0002 41.1195 -0.700493 -42.4644 41.5437 -1.1614 -44.0198 41.7344 -1.2813 
-43.9957 41.3198 -0.753167 -44.4489 41.1989 -1.0916 -40.8081 41.2907 -1.6645 
-40.3586 41.5021 -2.22734 -42.1951 42.0665 -1.70347 -41.6975 41.472 -1.43909 
-43.9938 41.9608 -1.91898 -44.2698 41.3597 -1.80309 -46.1277 41.8851 -2.18566 
-45.8906 41.4034 -1.79121 -45.5987 41.6165 -2.12326 -46.4338 41.3471 -2.04691 
-38.9943 41.8907 -2.99232 -39.2085 41.5067 -2.82061 -38.755 41.4693 -3.08575 
-39.8246 41.578 -2.54215 -44.6799 41.4551 -2.32554 -46.6555 41.1919 -3.06655 
-39.1043 41.7269 -3.31762 -39.9098 41.311 -3.42487 -40.9775 41.4286 -3.54744 
-41.8813 41.6945 -3.67563 -42.5406 41.1391 -4.17552 -44.8952 42.151 -4.33507 
-47.1014 41.8087 -3.59593 -47.3966 41.5839 -4.425 -43.1977 41.7662 -4.56282 
-44.073 41.8528 -4.90072 -43.4235 41.4715 -5.38209 -44.9977 41.8097 -5.25824 
-45.9323 42.1376 -4.97836 -47.4463 41.4717 -5.27444 -44.0724 41.6248 -5.67335 
-43.5894 41.4139 -5.95313 -44.6236 41.4839 -5.84929 -45.2337 41.5135 -5.77075 
-45.5109 41.4553 -6.34695 -45.8845 41.8093 -5.82597 -46.7633 41.9276 -6.06625 
-47.3586 41.753 -5.85389 -43.0668 41.6865 -7.31625 -42.8378 41.4396 -6.81671 
-42.5505 41.5508 -7.39376 -44.0192 41.2993 -6.24295 -43.3563 41.4103 -6.97999 
-46.0842 41.7967 -7.03184 -45.4104 41.5473 -7.07019 -46.6593 41.3506 -6.8964 
-47.0152 41.3263 -6.36939 -42.9114 41.7111 -7.84291 -42.5491 41.5555 -7.9602 
-43.4429 41.4728 -7.69641 -45.3196 41.8267 -7.85425 -44.8812 41.4124 -7.58805 
-44.7311 41.4584 -8.33974 -45.8342 41.8626 -8.25296 -46.3331 41.4864 -7.75236 
-42.8667 41.3197 -8.31084 -45.1858 41.8293 -8.9957 -44.8154 41.3823 -9.1994 
-45.5723 41.3503 -9.10652 -46.0792 41.566 -8.4032 -44.9688 41.7542 -9.88469 
-44.6464 41.4135 -9.96666 -45.3402 41.4266 -10.0531 -44.8406 41.2986 -10.5344 
-48.1851 41.0465 1.66137 -47.835 40.2067 2.30058 -47.4478 40.5774 1.86081 
-49.073 40.8111 1.7364 -48.7365 40.3339 2.4128 -49.4271 40.4731 2.03646 
-47.1778 40.95 0.93054 -47.0034 40.5129 1.54422 -46.5299 40.4748 1.0209 
-48.9477 40.9701 1.1892 -49.3594 40.4324 1.27473 -46.2365 40.8428 -0.0996702 
-45.8595 40.2582 0.450645 -45.5452 40.4661 -0.201525 -47.0064 41.0295 -0.0653868 
-47.6777 40.9865 -0.0692093 -48.4362 40.6917 0.174077 -48.9834 40.7109 0.669921 
-42.1589 41.0518 -0.937898 -42.0953 40.5451 -0.636551 -41.5822 40.6549 -1.07517 
-43.0632 40.3226 -0.405267 -44.0628 40.4413 -0.519802 -45.1665 40.8505 -0.932688 
-44.8902 40.516 -0.525526 -46.0822 41.027 -1.25698 -46.957 40.8771 -0.758199 
-47.5164 40.3436 -0.859817 -47.9775 40.3126 -0.373868 -39.2453 40.596 -2.0408 
-39.1213 40.3702 -1.92192 -38.7643 40.4456 -2.07498 -40.0579 40.9569 -1.95546 
-40.0089 40.5051 -1.77103 -40.9821 40.5466 -1.44621 -44.1071 40.763 -2.16114 
-43.8427 40.3314 -2.12959 -44.2576 40.6778 -1.77756 -44.3295 40.5363 -2.15346 
-45.1112 40.9963 -1.78781 -46.8968 40.4001 -1.52173 -46.617 40.6431 -2.28121 
-39.1232 41.2452 -3.16743 -38.9735 40.444 -2.22958 -39.8995 40.363 -2.28547 
-39.9547 41.0601 -2.93543 -40.625 40.4147 -2.83835 -44.0502 40.454 -2.29465 
-46.4176 40.3823 -3.03827 -40.8398 40.6557 -3.35049 -41.8213 40.5196 -3.70733 
-42.3285 40.4015 -4.26413 -46.9779 41.1263 -3.97952 -46.5951 40.6434 -4.03101 
-42.8276 41.0784 -5.0969 -42.395 40.5949 -4.92273 -47.0635 40.9342 -4.83522 
-46.6424 40.2588 -5.07335 -42.2638 40.7649 -5.81679 -41.8434 40.3941 -5.61352 
-41.5155 40.4823 -6.39333 -43.1271 41.1765 -6.20343 -44.7949 41.2017 -6.28473 
-47.0881 41.0029 -5.78008 -46.533 40.4404 -6.23189 -49.2022 40.8348 -6.23706 
-48.916 40.4368 -5.62598 -48.4342 40.5575 -6.12294 -50.041 40.7707 -6.2268 
-49.7089 40.5125 -5.55535 -50.4007 40.4663 -5.91534 -42.1469 41.0161 -6.78457 
-41.3988 40.3565 -7.385 -44.021 41.1404 -6.96046 -44.8861 41.1624 -6.96823 
-46.4599 40.5939 -7.16775 -47.8197 40.3978 -6.55544 -47.5556 40.4505 -7.32104 
-48.3473 40.8291 -6.93503 -49.1712 41.0315 -7.17215 -49.9095 40.8934 -7.02127 
-50.5627 40.5341 -6.76972 -42.0695 41.0492 -7.85792 -41.6126 40.2447 -8.28794 
-44.0899 41.1104 -8.09604 -45.8565 40.1231 -7.60436 -45.9836 40.9987 -8.17369 
-45.4202 40.5625 -8.21304 -48.1307 40.8563 -7.99853 -47.4586 40.478 -8.26564 
-48.9974 41.032 -8.00843 -49.86 40.9086 -8.03269 -50.545 40.5312 -7.79657 
-42.1854 40.7294 -8.68456 -43.1328 40.9532 -9.12071 -42.3338 40.363 -9.46063 
-44.1637 40.7939 -9.10567 -44.6581 40.705 -8.62248 -44.4336 40.4494 -9.06694 
-45.2453 40.9504 -8.82121 -48.0185 40.886 -9.11436 -47.3101 40.5459 -9.06789 
-49.0008 41.0304 -9.02267 -49.8803 40.9085 -9.03757 -50.551 40.5254 -8.82227 
-42.9283 40.7803 -9.90496 -42.6242 40.2641 -10.1311 -43.9427 40.997 -10.0153 
-44.6845 40.6607 -9.52938 -45.3325 40.5858 -10.1473 -47.3552 40.8102 -9.95417 
-46.8475 40.3699 -9.56321 -46.5572 40.4541 -10.3546 -48.2009 41.0248 -10.1508 
-49.0079 41.0424 -10.038 -49.9002 40.905 -10.0459 -50.5734 40.5405 -9.82899 
-43.2834 40.4169 -10.4244 -44.2772 40.5659 -10.685 -44.9132 40.7793 -11.0733 
-44.7353 40.1931 -11.0934 -45.38 40.6447 -10.8476 -47.0367 40.9095 -11.1542 
-46.3016 40.5785 -11.1277 -48.053 41.033 -11.0149 -48.8662 41.0497 -10.8809 
-49.7159 40.8528 -11.1163 -50.5698 40.3415 -10.9874 -45.1675 40.3293 -11.3115 
-45.9677 40.5079 -11.5643 -45.713 40.4234 -12.173 -46.2936 40.8509 -12.0214 
-47.1361 41.0583 -12.2712 -48.0129 41.0557 -12.1078 -49.0305 40.9261 -11.9704 
-49.6917 40.4632 -12.1614 -50.1328 40.3358 -11.6674 -45.928 40.7849 -12.8691 
-45.7133 40.2468 -12.8729 -46.6568 40.9382 -12.9955 -47.7161 40.9334 -13.0346 
-48.707 40.8229 -13.0153 -49.3267 40.5264 -12.8807 -46.1519 40.642 -13.3017 
-47.0845 40.4735 -13.4211 -48.2882 40.3843 -13.5361 -49.0597 40.2757 -13.4147 
-44.9585 39.6352 2.96883 -44.7022 39.2607 3.2183 -44.7321 39.4577 2.80996 
-45.3166 39.3326 3.16749 -49.4112 39.9618 2.79026 -49.1202 39.39 3.27509 
-48.5822 39.4301 3.10394 -50.2213 39.9076 2.94244 -49.7666 39.3556 3.49219 
-50.8222 39.7936 2.70148 -50.7448 39.5412 3.45488 -51.3281 39.2775 3.22917 
-45.1544 39.4605 2.70837 -46.9765 40.0618 1.83652 -47.1362 39.4823 2.34246 
-46.489 39.4975 1.80761 -47.9385 39.5778 2.72638 -49.9602 40.0052 2.04456 
-50.5884 39.5555 2.06425 -51.0997 39.1916 2.49447 -44.2104 39.6323 0.999554 
-43.9891 39.494 1.34483 -43.7158 39.3861 1.1003 -45.1614 39.7114 0.773475 
-44.6588 39.4707 1.42346 -46.1519 39.9262 1.2183 -45.6856 39.4363 1.5259 
-48.8805 40.0751 0.645182 -48.4529 39.5329 0.749237 -49.1275 39.3407 1.28748 
-50.0651 39.31 1.66688 -41.0347 39.7911 -0.155881 -41.2336 39.2622 0.200955 
-40.5504 39.3207 -0.326073 -42.0891 39.9816 -0.136488 -41.8013 39.5047 0.316743 
-43.0946 39.7716 -0.127077 -42.6623 39.2909 0.396641 -44.2293 39.3454 0.508216 
-43.4629 39.335 0.0597773 -44.9592 39.4104 0.28253 -45.3161 39.7668 0.0184905 
-48.2542 39.891 0.15885 -47.6492 39.5405 -0.263767 -48.0308 39.4555 0.429844 
-40.2209 39.6926 -0.895582 -39.9714 39.3843 -0.795022 -39.786 39.5019 -1.02468 
-41.1031 40.1076 -0.884216 -43.8829 39.6869 -0.364191 -44.7365 39.5903 -0.368397 
-47.3041 39.6867 -1.09325 -39.0698 40.2819 -2.13187 -39.6517 40.1281 -1.9886 
-40.1506 39.2223 -1.30421 -40.4912 39.6611 -1.76362 -43.9202 40.2328 -2.12822 
-46.5326 39.6292 -2.11032 -46.9614 39.3766 -1.41675 -40.9802 39.4781 -2.54762 
-41.2974 39.8981 -3.25184 -41.3379 39.21 -3.10234 -46.0869 39.841 -2.97181 
-45.5023 39.4894 -3.38831 -45.7953 39.1413 -2.59585 -41.4574 39.6426 -3.92796 
-41.9155 40.0169 -4.2747 -46.1198 39.9325 -4.00317 -45.4277 39.3277 -4.12366 
-48.1742 39.8013 -4.22629 -48.0638 39.4807 -3.59235 -47.5063 39.4597 -4.02275 
-49.295 39.8484 -4.12987 -48.718 39.4783 -3.46623 -50.2752 39.7887 -4.29905 
-49.682 39.4802 -3.54273 -50.4584 39.4291 -3.87635 -41.2987 39.7603 -4.84704 
-40.9352 39.3227 -4.47873 -40.665 39.3507 -5.18227 -41.91 40.1483 -4.95767 
[...]
CELL_DATA 10504
SCALARS scalars float
LOOKUP_TABLE default
1020 1020 1020 1020 1020 1020 1020 1020 1020 
1020 1020 1020 1020 1020 1020 1020 1020 1020 
1020 1020 1020 1020 1020 1020 1020 1020 1020 
1020 1020 1020 1020 1020 1020 1020 1020 1020 
1020 1020 1020 1020 1020 1020 1020 1020 1020 
1020 1020 1020 1020 1020 1020 1020 1020 1020 
1020 1020 1020 1020 1020 1020 1020 1020 1020 
1020 1020 1020 1020 1020 1020 1020 1020 1020 
1020 1020 1020 1020 1020 1020 1020 1020 1020 
1020 1020 1020 1020 1020 1020 1020 1020 1020 
1020 1020 1020 1020 1020 1020 1020 1020 1020 
1020 1020 1020 1020 1020 1020 1020 1020 1020 
1020 1020 1020 1020 1020 1020 1020 1020 1020 
1020 1020 1020 1020 1020 1020 1020 1020 1020 
1020 1020 1020 1020 1020 1020 1020 1020 1020 
1020 1020 1020 1020 1020 1020 1020 1020 1020 
1020 1020 1020 1020 1020 1020 1020 1020 1020 
1020 1020 1020 1020 1020 1020 1020 1020 1020 
1020 1020 1020 1020 1020 1020 1020 1020 1020 
1020 1020 1020 1020 1020 1020 1020 1020 1020 
1020 1020 1020 1020 1020 1020 1020 1020 1020 
1020 1020 1020 1020 1020 1020 1020 1020 1020 
1020 1020 1020 1020 1020 1020 1020 1020 1020 
1020 1020 1020 1020 1020 1020 1020 1020 1020 
1020 1020 1020 1020 1020 1020 1020 1020 1020 
1020 1020 1020 1020 1020 1020 1020 1020 1020 
1020 1020 1020 1020 1020 1020 1020 1020 1020 
1020 1020 1020 1020 1020 1020 1020 1020 1020 
1020 1020 1020 1020 1020 1020 1020 1020 1020 
1020 1020 1020 1020 1020 1020 1020 1020 1020 
1020 1020 1020 1020 1020 1020 1020 1020 1020 
1020 1020 1020 1020 1020 1020 1020 1020 1020 
1020 1020 1020 1020 1020 1020 1020 1020 1020 
1020 1020 1020 1020 1020 1020 1020 1020 1020 
1020 1020 1020 1020 1020 1020 1020 1020 1020 
1020 1020 1020 1020 1020 1020 1020 1020 1020 
1020 1020 1020 1020 1020 1020 1020 1020 1020 
1020 1020 1020 1020 1020 1020 1020 1020 1020 
1020 1020 1020 1020 1020 1020 1020 1020 1020 
1020 1020 1020 1020 1020 1020 1020 1020 1020 
1020 1020 1020 1020 1020 1020 1020 1020 1020 
1020 1020 1020 1020 1020 1020 1020 1020 1020 
1020 1020 1020 1020 1020 1020 1020 1020 1020 
1020 1020 1020 1020 1020 1020 1020 1020 1020 
1020 1020 1020 1020 1020 1020 1020 1020 1020 
1020 1020 1020 1020 1020 1020 1020 1020 1020 
1020 1020 1020 1020 1020 1020 1020 1020 1020 
1020 1020 1020 1020 1020 1020 1020 1020 1020 
1020 1020 1020 1020 1020 1020 1020 1020 1020 
1020 1020 1020 1020 1020 1020 1020 1020 1020 
1020 1020 1020 1020 1020 1020 1020 1020 1020 
1020 1020 1020 1020 1020 1020 1020 1020 1020 
1020 1020 1020 1020 1020 1020 1020 1020 1020 
1020 1020 1020 1020 1020 1020 1020 1020 1020 
1020 1020 1020 1020 1020 1020 1020 1020 1020 
1020 1020 1020 1020 1020 1020 1020 1020 1020 
1020 1020 1020 1020 1020 1020 1020 1020 1020 
1020 1020 1020 1020 1020 1020 1020 1020 1020 
1020 1020 1020 1020 1020 1020 1020 1020 1020 
1020 1020 1020 1020 1020 1020 1020 1020 1020 
1020 1020 1020 1020 1020 1020 1020 1020 1020 
1020 1020 1020 1020 1020 1020 1020 1020 1020 
1020 1020 1020 1020 1020 1020 1020 1020 1020 
1020 1020 1020 1020 1020 1020 1020 1020 1020 
1020 1020 1020 1020 1020 1020 1020 1020 1020 
1020 1020 1020 1020 1020 1020 1020 1020 1020 
1020 1020 1020 1020 1020 1020 1020 1020 1020 
1020 1020 1020 1020 1020 1020 1020 1020 1020 
1020 1020 1020 1020 1020 1020 1020 1020 1020 
1020 1020 1020 1020 1020 1020 1020 1020 1020 
1020 1020 1020 1020 1020 1020 1020 1020 1020 
1020 1020 1020 1020 1020 1020 1020 1020 1020 
1020 1020 1020 1020 1020 1020 1020 1020 1020 
1020 1020 1020 1020 1020 1020 1020 1020 1020 
1020 1020 1020 1020 1020 1020 1020 1020 1020 
1020 1020 1020 1020 1020 1020 1020 1020 1020 
1020 1020 1020 1020 1020 1020 1020 1020 1020 
1020 1020 1020 1020 1020 1020 1020 1020 1020 
1020 1020 1020 1020 1020 1020 1020 1020 1020 
1020 1020 1020 1020 1020 1020 1020 1020 1020 
1020 1020 1020 1020 1020 1020 1020 1020 1020 
1020 1020 1020 1020 1020 1020 1020 1020 1020 
1020 1020 1020 1020 1020 1020 1020 1020 1020 
1020 1020 1020 1020 1020 1020 1020 1020 1020 
1020 1020 1020 1020 1020 1020 1020 1020 1020 
1020 1020 1020 1020 1020 1020 1020 1020 1020 
1020 1020 1020 1020 1020 1020 1020 1020 1020 
1020 1020 1020 1020 1020 1020 1020 1020 1020 
1020 1020 1020 1020 1020 1020 1020 1020 1020 
1020 1020 1020 1020 1020 1020 1020 1020 1020 
1020 1020 1020 1020 1020 1020 1020 1020 1020 
1020 1020 1020 1020 1020 1020 1020 1020 1020 
1020 1020 1020 1020 1020 1020 1020 1020 1020 
1020 1020 1020 1020 1020 1020 1020 1020 1020 
1020 1020 1020 1020 1020 1020 1020 1020 1020 
1020 1020 1020 1020 1020 1020 1020 1020 1020 
1020 1020 1020 1020 1020 1020 1020 1020 1020 
1020 1020 1020 1020 1020 1020 1020 1020 1020 
1020 1020 1020 1020 1020 1020 1020 1020 1020 
1020 1020 1020 1020 1020 1020 1020 1020 1020 
1020 1020 1020 1020 1020 1020 1020 1020 1020 
1020 1020 1020 1020 1020 1020 1020 1020 1020 
1020 1020 1020 1020 1020 1020 1020 1020 1020 
1020 1020 1020 1020 1020 1020 1020 1020 1020 
1020 1020 1020 1020 1020 1020 1020 1020 1020 
1020 1020 1020 1020 1020 1020 1020 1020 1020 
1020 1020 1020 1020 1020 1020 1020 1020 1020 
1020 1020 1020 1020 1020 1020 1020 1020 1020 
1020 1020 1020 1020 1020 1020 1020 1020 1020 
1020 1020 1020 1020 1020 1020 1020 1020 1020 
1020 1020 1020 1020 1020 1020 1020 1020 1020 
1020 1020 1020 1020 1020 1020 1020 1020 1020 
1020 1020 1020 1020 1020 1020 1020 1020 1020 
1020 1020 1020 1020 1020 1020 1020 1020 1020 
1020 1020 1020 1020 1020 1020 1020 1020 1020 
1020 1020 1020 1020 1020 1020 1020 1020 1020 
1020 1020 1020 1020 1020 1020 1020 1020 1020 
1020 1020 1020 1020 1020 1020 1020 1020 1020 
1020 1020 1020 1020 1020 1020 1020 1020 1020 
1020 1020 1020 1020 1020 1020 1020 1020 1020 
1020 1020 1020 1020 1020 1020 1020 1020 1020 
1020 1020 1020 1020 1020 1020 1020 1020 1020 
1020 1020 1020 1020 1020 1020 1020 1020 1020 
1020 1020 1020 1020 1020 1020 1020 1020 1020 
1020 1020 1020 1020 1020 1020 1020 1020 1020 
1020 1020 1020 1020 1020 1020 1020 1020 1020 
1020 1020 1020 1020 1020 1020 1020 1020 1020 
1020 1020 1020 1020 1020 1020 1020 1020 1020 
1020 1020 1020 1020 1020 1020 1020 1020 1020 
1020 1020 1020 1020 1020 1020 1020 1020 1020 
1020 1020 1020 1020 1020 1020 1020 1020 1020 
1020 1020 1020 1020 1020 1020 1020 1020 1020 
1020 1020 1020 1020 1020 1020 1020 1020 1020 
1020 1020 1020 1020 1020 1020 1020 1020 1020 
1020 1020 1020 1020 1020 1020 1020 1020 1020 
1020 1020 1020 1020 1020 1020 1020 1020 1020 
1020 1020 1020 1020 1020 1020 1020 1020 1020 
1020 1020 1020 1020 1020 1020 1020 1020 1020 
1020 1020 1020 1020 1020 1020 1020 1020 1020 
1020 1020 1020 1020 1020 1020 1020 1020 1020 
1020 1020 1020 1020 1020 1020 1020 1020 1020 
1020 1020 1020 1020 1020 1020 1020 1020 1020 
1020 1020 1020 1020 1020 1020 1020 1020 1020 
1020 1020 1020 1020 1020 1020 1020 1020 1020 
1020 1020 1020 1020 1020 1020 1020 1020 1020 
1020 1020 1020 1020 1020 1020 1020 1020 1020 
1020 1020 1020 1020 1020 1020 1020 1020 1020 
1020 1020 1020 1020 1020 1020 1020 1020 1020 
1020 1020 1020 1020 1020 1020 1020 1020 1020 
1020 1020 1020 1020 1020 1020 1020 1020 1020 
1020 1020 1020 1020 1020 1020 1020 1020 1020 
1020 1020 1020 1020 1020 1020 1020 1020 1020 
1020 1020 1020 1020 1020 1020 1020 1020 1020 
1020 1020 1020 1020 1020 1020 1020 1020 1020 
1020 1020 1020 1020 1020 1020 1020 1020 1020 
1020 1020 1020 1020 1020 1020 1020 1020 1020 
1020 1020 1020 1020 1020 1020 1020 1020 1020 
1020 1020 1020 1020 1020 1020 1020 1020 1020 
1020 1020 1020 1020 1020 1020 1020 1020 1020 
1020 1020 1020 1020 1020 1020 1020 1020 1020 
1020 1020 1020 1020 1020 1020 1020 1020 1020 
1020 1020 1020 1020 1020 1020 1020 1020 1020 
1020 1020 1020 1020 1020 1020 1020 1020 1020 
1020 1020 1020 1020 1020 1020 1020 1020 1020 
1020 1020 1020 1020 1020 1020 1020 1020 1020 
1020 1020 1020 1020 1020 1020 1020 1020 1020 
1020 1020 1020 1020 1020 1020 1020 1020 1020 
1020 1020 1020 1020 1020 1020 1020 1020 1020 
1020 1020 1020 1020 1020 1020 1020 1020 1020 
1020 1020 1020 1020 1020 1020 1020 1020 1020 
1020 1020 1020 1020 1020 1020 1020 1020 1020 
1020 1020 1020 1020 1020 1020 1020 1020 1020 
1020 1020 1020 1020 1020 1020 1020 1020 1020 
1020 1020 1020 1020 1020 1020 1020 1020 1020 
1020 1020 1020 1020 1020 1020 1020 1020 1020 
1020 1020 1020 1020 1020 1020 1020 1020 1020 
1020 1020 1020 1020 1020 1020 1020 1020 1020 
1020 1020 1020 1020 1020 1020 1020 1020 1020 
1020 1020 1020 1020 1020 1020 1020 1020 1020 
1020 1020 1020 1020 1020 1020 1020 1020 1020 
1020 1020 1020 1020 1020 1020 1020 1020 1020 
1020 1020 1020 1020 1020 1020 1020 1020 1020 
1020 1020 1020 1020 1020 1020 1020 1020 1020 
1020 1020 1020 1020 1020 1020 1020 1020 1020 
1020 1020 1020 1020 1020 1020 1020 1020 1020 
1020 1020 1020 1020 1020 1020 1020 1020 1020 
1020 1020 1020 1020 1020 1020 1020 1020 1020 
1020 1020 1020 1020 1020 1020 1020 1020 1020 
1020 1020 1020 1020 1020 1020 1020 1020 1020 
1020 1020 1020 1020 1020 1020 1020 1020 1020 
1020 1020 1020 1020 1020 1020 1020 1020 1020 
1020 1020 1020 1020 1020 1020 1020 1020 1020 
1020 1020 1020 1020 1020 1020 1020 1020 1020 
1020 1020 1020 1020 1020 1020 1020 1020 1020 
1020 1020 1020 1020 1020 1020 1020 1020 1020 
1020 1020 1020 1020 1020 1020 1020 1020 1020 
1020 1020 1020 1020 1020 1020 1020 1020 1020 
1020 1020 1020 1020 1020 1020 1020 1020 1020 
1020 1020 1020 1020 1020 1020 1020 1020 1020 
1020 1020 1020 1020 1020 1020 1020 1020 1020 
1020 1020 1020 1020 1020 1020 1020 1020 1020 
1020 1020 1020 1020 1020 1020 1020 1020 1020 
1020 1020 1020 1020 1020 1020 1020 1020 1020 
1020 1020 1020 1020 1020 1020 1020 1020 1020 
1020 1020 1020 1020 1020 1020 1020 1020 1020 
1020 1020 1020 1020 1020 1020 1020 1020 1020 
1020 1020 1020 1020 1020 1020 1020 1020 1020 
1020 1020 1020 1020 1020 1020 1020 1020 1020 
1020 1020 1020 1020 1020 1020 1020 1020 1020 
1020 1020 1020 1020 1020 1020 1020 1020 1020 
1020 1020 1020 1020 1020 1020 1020 1020 1020 
1020 1020 1020 1020 1020 1020 1020 1020 1020 
1020 1020 1020 1020 1020 1020 1020 1020 1020 
1020 1020 1020 1020 1020 1020 1020 1020 1020 
1020 1020 1020 1020 1020 1020 1020 1020 1020 
1020 1020 1020 1020 1020 1020 1020 1020 1020 
1020 1020 1020 1020 1020 1020 1020 1020 1020 
1020 1020 1020 1020 1020 1020 1020 1020 1020 
1020 1020 1020 1020 1020 1020 1020 1020 1020 
1020 1020 1020 1020 1020 1020 1020 1020 1020 
1020 1020 1020 1020 1020 1020 1020 1020 1020 
1020 1020 1020 1020 1020 1020 1020 1020 1020 
1020 1020 1020 1020 1020 1020 1020 1020 1020 
1020 1020 1020 1020 1020 1020 1020 1020 1020 
1020 1020 1020 1020 1020 1020 1020 1020 1020 
1020 1020 1020 1020 1020 1020 1020 1020 1020 
1020 1020 1020 1020 1020 1020 1020 1020 1020 
1020 1020 1020 1020 1020 1020 1020 1020 1020 
1020 1020 1020 1020 1020 1020 1020 1020 1020 
1020 1020 1020 1020 1020 1020 1020 1020 1020 
1020 1020 1020 1020 1020 1020 1020 1020 1020 
1020 1020 1020 1020 1020 1020 1020 1020 1020 
1020 1020 1020 1020 1020 1020 1020 1020 1020 
1020 1020 1020 1020 1020 1020 1020 1020 1020 
1020 1020 1020 1020 1020 1020 1020 1020 1020 
1020 1020 1020 1020 1020 1020 1020 1020 1020 
1020 1020 1020 1020 1020 1020 1020 1020 1020 
1020 1020 1020 1020 1020 1020 1020 1020 1020 
1020 1020 1020 1020 1020 1020 1020 1020 1020 
1020 1020 1020 1020 1020 1020 1020 1020 1020 
1020 1020 1020 1020 1020 1020 1020 1020 1020 
1020 1020 1020 1020 1020 1020 1020 1020 1020 
1020 1020 1020 1020 1020 1020 1020 1020 1020 
1020 1020 1020 1020 1020 1020 1020 1020 1020 
1020 1020 1020 1020 1020 1020 1020 1020 1020 
1020 1020 1020 1020 1020 1020 1020 1020 1020 
1020 1020 1020 1020 1020 1020 1020 1020 1020 
1020 1020 1020 1020 1020 1020 1020 1020 1020 
1020 1020 1020 1020 1020 1020 1020 1020 1020 
1020 1020 1020 1020 1020 1020 1020 1020 1020 
1020 1020 1020 1020 1020 1020 1020 1020 1020 
1020 1020 1020 1020 1020 1020 1020 1020 1020 
1020 1020 1020 1020 1020 1020 1020 1020 1020 
1020 1020 1020 1020 1020 1020 1020 1020 1020 
1020 1020 1020 1020 1020 1020 1020 1020 1020 
1020 1020 1020 1020 1020 1020 1020 1020 1020 
1020 1020 1020 1020 1020 1020 1020 1020 1020 
1020 1020 1020 1020 1020 1020 1020 1020 1020 
1020 1020 1020 1020 1020 1020 1020 1020 1020 
1020 1020 1020 1020 1020 1020 1020 1020 1020 
1020 1020 1020 1020 1020 1020 1020 1020 1020 
1020 1020 1020 1020 1020 1020 1020 1020 1020 
1020 1020 1020 1020 1020 1020 1020 1020 1020 
1020 1020 1020 1020 1020 1020 1020 1020 1020 
1020 1020 1020 1020 1020 1020 1020 1020 1020 
1020 1020 1020 1020 1020 1020 1020 1020 1020 
1020 1020 1020 1020 1020 1020 1020 1020 1020 
1020 1020 1020 1020 1020 1020 1020 1020 1020 
1020 1020 1020 1020 1020 1020 1020 1020 1020 
1020 1020 1020 1020 1020 1020 1020 1020 1020 
1020 1020 1020 1020 1020 1020 1020 1020 1020 
1020 1020 1020 1020 1020 1020 1020 1020 1020 
1020 1020 1020 1020 1020 1020 1020 1020 1020 
1020 1020 1020 1020 1020 1020 1020 1020 1020 
1020 1020 1020 1020 1020 1020 1020 1020 1020 
1020 1020 1020 1020 1020 1020 1020 1020 1020 
1020 1020 1020 1020 1020 1020 1020 1020 1020 
1020 1020 1020 1020 1020 1020 1020 1020 1020 
1020 1020 1020 1020 1020 1020 1020 1020 1020 
1020 1020 1020 1020 1020 1020 1020 1020 1020 
1020 1020 1020 1020 1020 1020 1020 1020 1020 
1020 1020 1020 1020 1020 1020 1020 1020 1020 
1020 1020 1020 1020 1020 1020 1020 1020 1020 
1020 1020 1020 1020 1020 1020 1020 1020 1020 
1020 1020 1020 1020 1020 1020 1020 1020 1020 
1020 1020 1020 1020 1020 1020 1020 1020 1020 
1020 1020 1020 1020 1020 1020 1020 1020 1020 
1020 1020 1020 1020 1020 1020 1020 1020 1020 
1020 1020 1020 1020 1020 1020 1020 1020 1020 
1020 1020 1020 1020 1020 1020 1020 1020 1020 
1020 1020 1020 1020 1020 1020 1020 1020 1020 
1020 1020 1020 1020 1020 1020 1020 1020 1020 
1020 1020 1020 1020 1020 1020 1020 1020 1020 
1020 1020 1020 1020 1020 1020 1020 1020 1020 
1020 1020 1020 1020 1020 1020 1020 1020 1020 
1020 1020 1020 1020 1020 1020 1020 1020 1020 
1020 1020 1020 1020 1020 1020 1020 1020 1020 
1020 1020 1020 1020 1020 1020 1020 1020 1020 
1020 1020 1020 1020 1020 1020 1020 1020 1020 
1020 1020 1020 1020 1020 1020 1020 1020 1020 
1020 1020 1020 1020 1020 1020 1020 1020 1020 
1020 1020 1020 1020 1020 1020 1020 1020 1020 
1020 1020 1020 1020 1020 1020 1020 1020 1020 
1020 1020 1020 1020 1020 1020 1020 1020 1020 
1020 1020 1020 1020 1020 1020 1020 1020 1020 
1020 1020 1020 1020 1020 1020 1020 1020 1020 
1020 1020 1020 1020 1020 1020 1020 1020 1020 
1020 1020 1020 1020 1020 1020 1020 1020 1020 
1020 1020 1020 1020 1020 1020 1020 1020 1020 
1020 1020 1020 1020 1020 1020 1020 1020 1020 
1020 1020 1020 1020 1020 1020 1020 1020 1020 
1020 1020 1020 1020 1020 1020 1020 1020 1020 
1020 1020 1020 1020 1020 1020 1020 1020 1020 
1020 1020 1020 1020 1020 1020 1020 1020 1020 
1020 1020 1020 1020 1020 1020 1020 1020 1020 
1020 1020 1020 1020 1020 1020 1020 1020 1020 
1020 1020 1020 1020 1020 1020 1020 1020 1020 
1020 1020 1020 1020 1020 1020 1020 1020 1020 
1020 1020 1020 1020 1020 1020 1020 1020 1020 
1020 1020 1020 1020 1020 1020 1020 1020 1020 
1020 1020 1020 1020 1020 1020 1020 1020 1020 
1020 1020 1020 1020 1020 1020 1020 1020 1020 
1020 1020 1020 1020 1020 1020 1020 1020 1020 
1020 1020 1020 1020 1020 1020 1020 1020 1020 
1020 1020 1020 1020 1020 1020 1020 1020 1020 
1020 1020 1020 1020 1020 1020 1020 1020 1020 
1020 1020 1020 1020 1020 1020 1020 1020 1020 
1020 1020 1020 1020 1020 1020 1020 1020 1020 
1020 1020 1020 1020 1020 1020 1020 1020 1020 
1020 1020 1020 1020 1020 1020 1020 1020 1020 
1020 1020 1020 1020 1020 1020 1020 1020 1020 
1020 1020 1020 1020 1020 1020 1020 1020 1020 
1020 1020 1020 1020 1020 1020 1020 1020 1020 
1020 1020 1020 1020 1020 1020 1020 1020 1020 
1020 1020 1020 1020 1020 1020 1020 1020 1020 
1020 1020 1020 1020 1020 1020 1020 1020 1020 
1020 1020 1020 1020 1020 1020 1020 1020 1020 
1020 1020 1020 1020 1020 1020 1020 1020 1020 
1020 1020 1020 1020 1020 1020 1020 1020 1020 
1020 1020 1020 1020 1020 1020 1020 1020 1020 
1020 1020 1020 1020 1020 1020 1020 1020 1020 
1020 1020 1020 1020 1020 1020 1020 1020 1020 
1020 1020 1020 1020 1020 1020 1020 1020 1020 
1020 1020 1020 1020 1020 1020 1020 1020 1020 
1020 1020 1020 1020 1020 1020 1020 1020 1020 
1020 1020 1020 1020 1020 1020 1020 1020 1020 
1020 1020 1020 1020 1020 1020 1020 1020 1020 
1020 1020 1020 1020 1020 1020 1020 1020 1020 
1020 1020 1020 1020 1020 1020 1020 1020 1020 
1020 1020 1020 1020 1020 1020 1020 1020 1020 
1020 1020 1020 1020 1020 1020 1020 1020 1020 
1020 1020 1020 1020 1020 1020 1020 1020 1020 
1020 1020 1020 1020 1020 1020 1020 1020 1020 
1020 1020 1020 1020 1020 1020 1020 1020 1020 
1020 1020 1020 1020 1020 1020 1020 1020 1020 
1020 1020 1020 1020 1020 1020 1020 1020 1020 
1020 1020 1020 1020 1020 1020 1020 1020 1020 
1020 1020 1020 1020 1020 1020 1020 1020 1020 
1020 1020 1020 1020 1020 1020 1020 1020 1020 
1020 1020 1020 1020 1020 1020 1020 1020 1020 
1020 1020 1020 1020 1020 1020 1020 1020 1020 
1020 1020 1020 1020 1020 1020 1020 1020 1020 
1020 1020 1020 1020 1020 1020 1020 1020 1020 
1020 1020 1020 1020 1020 1020 1020 1020 1020 
1020 1020 1020 1020 1020 1020 1020 1020 1020 
1020 1020 1020 1020 1020 1020 1020 1020 1020 
1020 1020 1020 1020 1020 1020 1020 1020 1020 
1020 1020 1020 1020 1020 1020 1020 1020 1020 
1020 1020 1020 1020 1020 1020 1020 1020 1020 
1020 1020 1020 1020 1020 1020 1020 1020 1020 
1020 1020 1020 1020 1020 1020 1020 1020 1020 
1020 1020 1020 1020 1020 1020 1020 1020 1020 
1020 1020 1020 1020 1020 1020 1020 1020 1020 
1020 1020 1020 1020 1020 1020 1020 1020 1020 
1020 1020 1020 1020 1020 1020 1020 1020 1020 
1020 1020 1020 1020 1020 1020 1020 1020 1020 
1020 1020 1020 1020 1020 1020 1020 1020 1020 
1020 1020 1020 1020 1020 1020 1020 1020 1020 
1020 1020 1020 1020 1020 1020 1020 1020 1020 
1020 1020 1020 1020 1020 1020 1020 1020 1020 
1020 1020 1020 1020 1020 1020 1020 1020 1020 
1020 1020 1020 1020 1020 1020 1020 1020 1020 
1020 1020 1020 1020 1020 1020 1020 1020 1020 
1020 1020 1020 1020 1020 1020 1020 1020 1020 
1020 1020 1020 1020 1020 1020 1020 1020 1020 
1020 1020 1020 1020 1020 1020 1020 1020 1020 
1020 1020 1020 1020 1020 1020 1020 1020 1020 
1020 1020 1020 1020 1020 1020 1020 1020 1020 
1020 1020 1020 1020 1020 1020 1020 1020 1020 
1020 1020 1020 1020 1020 1020 1020 1020 1020 
1020 1020 1020 1020 1020 1020 1020 1020 1020 
1020 1020 1020 1020 1020 1020 1020 1020 1020 
1020 1020 1020 1020 1020 1020 1020 1020 1020 
1020 1020 1020 1020 1020 1020 1020 1020 1020 
1020 1020 1020 1020 1020 1020 1020 1020 1020 
1020 1020 1020 1020 1020 1020 1020 1020 1020 
1020 1020 1020 1020 1020 1020 1020 1020 1020 
1020 1020 1020 1020 1020 1020 1020 1020 1020 
1020 1020 1020 1020 1020 1020 1020 1020 1020 
1020 1020 1020 1020 1020 1020 1020 1020 1020 
1020 1020 1020 1020 1020 1020 1020 1020 1020 
1020 1020 1020 1020 1020 1020 1020 1020 1020 
1020 1020 1020 1020 1020 1020 1020 1020 1020 
1020 1020 1020 1020 1020 1020 1020 1020 1020 
1020 1020 1020 1020 1020 1020 1020 1020 1020 
1020 1020 1020 1020 1020 1020 1020 1020 1020 
1020 1020 1020 1020 1020 1020 1020 1020 1020 
1020 1020 1020 1020 1020 1020 1020 1020 1020 
1020 1020 1020 1020 1020 1020 1020 1020 1020 
1020 1020 1020 1020 1020 1020 1020 1020 1020 
1020 1020 1020 1020 1020 1020 1020 1020 1020 
1020 1020 1020 1020 1020 1020 1020 1020 1020 
1020 1020 1020 1020 1020 1020 1020 1020 1020 
1020 1020 1020 1020 1020 1020 1020 1020 1020 
1020 1020 1020 1020 1020 1020 1020 1020 1020 
1020 1020 1020 1020 1020 1020 1020 1020 1020 
1020 1020 1020 1020 1020 1020 1020 1020 1020 
1020 1020 1020 1020 1020 1020 1020 1020 1020 
1020 1020 1020 1020 1020 1020 1020 1020 1020 
1020 1020 1020 1020 1020 1020 1020 1020 1020 
1020 1020 1020 1020 1020 1020 1020 1020 1020 
1020 1020 1020 1020 1020 1020 1020 1020 1020 
1020 1020 1020 1020 1020 1020 1020 1020 1020 
1020 1020 1020 1020 1020 1020 1020 1020 1020 
1020 1020 1020 1020 1020 1020 1020 1020 1020 
1020 1020 1020 1020 1020 1020 1020 1020 1020 
1020 1020 1020 1020 1020 1020 1020 1020 1020 
1020 1020 1020 1020 1020 1020 1020 1020 1020 
1020 1020 1020 1020 1020 1020 1020 1020 1020 
1020 1020 1020 1020 1020 1020 1020 1020 1020 
1020 1020 1020 1020 1020 1020 1020 1020 1020 
1020 1020 1020 1020 1020 1020 1020 1020 1020 
1020 1020 1020 1020 1020 1020 1020 1020 1020 