# vtk DataFile Version 4.0
vtk output
ASCII
DATASET POLYDATA
POINTS 6152 float
-26.0351 -68.2331 7.8204 -25.85 -68.7638 8.34317 -25.5085 -68.4056 7.70464 
-26.4733 -68.5812 8.07104 -25.9431 -68.1816 7.01257 -25.4333 -68.6114 6.6707 
-26.5132 -68.419 7.31308 -25.8735 -68.3043 6.18853 -25.6155 -68.7589 5.69983 
-26.4067 -68.4169 6.32951 -26.112 -68.5363 5.6757 -26.9871 -68.422 5.18287 
-26.6315 -68.6593 4.9669 -27.0139 -68.3681 4.9363 -27.2827 -68.5139 5.04553 
-27.1293 -68.8355 4.63669 -23.2526 -69.2631 9.11025 -23.1372 -69.7543 9.35659 
-22.8 -69.5335 9.05103 -23.7738 -69.2345 8.94125 -23.7795 -69.4217 9.29052 
-24.1821 -69.6634 8.94747 -23.0918 -69.5522 8.5591 -23.9002 -69.4302 8.62042 
-25.1559 -69.6018 8.38309 -24.5255 -69.6549 7.69984 -25.098 -68.923 8.07114 
-26.1279 -69.6242 8.57294 -27.216 -69.0151 7.70677 -26.7295 -69.2748 8.37927 
-27.4909 -69.8318 8.05885 -24.9631 -69.006 7.36197 -24.6577 -69.7817 6.81161 
-27.1944 -68.808 6.69083 -27.9405 -69.5246 7.53617 -27.9743 -69.213 6.90084 
-28.3441 -69.7346 7.00292 -25.011 -69.3158 6.56916 -25.2046 -69.3572 5.84026 
-26.9637 -68.6972 5.55563 -27.9606 -69.1011 5.88925 -28.3707 -69.6246 6.07083 
-26.0247 -68.9078 5.16004 -25.4144 -69.4966 5.0422 -27.7797 -68.9624 5.02281 
-28.2598 -69.3923 5.16215 -26.1901 -69.5266 4.5284 -27.0188 -69.4818 4.34654 
-27.7058 -69.5798 4.5869 -22.9534 -70.7746 9.44062 -22.4609 -70.134 8.90828 
-23.887 -70.1813 9.39714 -24.4837 -70.6465 8.90485 -22.107 -70.0701 7.88826 
-21.9312 -70.452 8.49068 -21.4395 -70.5027 8.00253 -22.9427 -69.8523 7.89745 
-23.9937 -69.9311 8.10803 -25.0933 -70.5875 8.52077 -26.0162 -70.5082 8.54851 
-26.8801 -70.2616 8.45252 -27.5905 -70.8476 8.0505 -21.1677 -70.1988 7.14937 
-20.7776 -70.5569 7.4195 -20.5007 -70.4847 6.66896 -21.7253 -70.1413 6.81601 
-22.7692 -70.1788 7.19488 -23.6078 -70.6892 6.95312 -24.0786 -70.3395 7.41747 
-24.3075 -70.5874 6.87771 -28.0982 -70.2758 7.53947 -28.3431 -70.4639 6.792 
-21.1741 -70.172 6.03992 -20.4736 -70.4853 5.73957 -21.6804 -70.3775 6.14491 
-22.2833 -70.5024 6.38855 -22.9935 -70.7111 6.45142 -24.8622 -69.8426 6.04393 
-24.5962 -70.4338 5.96571 -28.1631 -70.1726 5.99149 -27.8098 -70.5155 5.65217 
-28.0226 -70.8901 6.36198 -21.1414 -70.0826 4.95021 -20.4685 -70.46 4.72416 
-21.806 -70.3959 5.56444 -21.857 -70.1601 4.91134 -22.38 -70.6814 4.86509 
-24.9195 -70.0814 5.25726 -24.6428 -70.8765 4.90525 -28.0776 -69.9067 5.22337 
-27.5824 -70.652 4.87186 -20.9741 -70.0515 3.8397 -20.2855 -70.3874 3.88808 
-21.8946 -70.0614 3.94159 -22.4032 -70.4631 4.08142 -25.2531 -70.3456 4.45098 
-26.0896 -70.4708 4.17157 -26.9805 -70.3127 4.26741 -20.2407 -70.2403 3.21637 
-19.9461 -70.5037 3.48432 -19.7577 -70.6413 2.97193 -20.8702 -70.0965 2.945 
-21.7203 -70.126 3.02603 -22.436 -70.6867 3.09571 -17.8921 -70.3211 1.97416 
-17.8317 -70.6646 2.13058 -17.6825 -70.6853 1.67844 -18.2951 -70.6137 2.1605 
-20.3576 -70.4567 2.49442 -21.3197 -70.4212 2.36132 -22.1016 -70.5916 2.38654 
-18.0748 -70.4741 1.7019 -21.8942 -70.8789 8.84366 -22.0575 -71.7569 9.38931 
-21.3979 -71.4154 8.84554 -23.1697 -71.6896 9.56192 -23.9128 -71.2374 9.40589 
-24.514 -71.7966 8.97658 -20.2363 -71.2788 7.97869 -19.7522 -71.7917 8.27627 
-19.5568 -71.5107 7.62912 -20.9624 -70.994 8.11778 -20.6431 -71.6805 8.54775 
-25.1603 -71.5713 8.63057 -26.0046 -71.5277 8.51694 -26.8969 -71.3211 8.4008 
-27.5683 -71.8999 7.8513 -20.1498 -70.9947 7.24789 -19.4601 -71.4997 6.71218 
-23.9959 -70.8383 7.01753 -28.086 -71.2344 7.4461 -28.2036 -71.3344 6.91644 
-19.9688 -71.0125 6.24078 -19.4945 -71.5565 5.7242 -22.2573 -70.7359 5.6777 
-22.879 -71.0242 5.77271 -23.3412 -71.3865 5.95316 -23.8161 -71.5563 6.49924 
-24.374 -71.4589 5.97921 -27.6377 -71.45 5.93415 -27.9307 -71.648 6.67434 
-19.9897 -71.032 5.25282 -19.511 -71.5642 4.72636 -22.8399 -71.186 4.97239 
-23.1836 -71.4883 5.17654 -24.4896 -71.6897 5.09179 -27.5074 -71.7075 5.0836 
-19.8255 -70.923 4.01453 -19.3548 -71.4847 3.8735 -22.6858 -71.3976 4.04125 
-22.9791 -71.7133 4.66115 -24.9341 -70.9934 4.0615 -24.5607 -71.5423 4.09574 
-25.6707 -70.9793 3.87136 -26.6327 -71.0616 3.85646 -27.3375 -71.4691 4.21137 
-19.0713 -71.09 2.87291 -19.0234 -71.5845 3.48195 -18.6181 -71.6127 3.14331 
-22.602 -71.6704 3.0449 -25.29 -71.6311 3.45196 -26.2661 -71.6351 3.49463 
-27.0211 -71.7482 3.62309 -18.1677 -71.2149 2.53534 -17.4963 -71.5532 1.877 
-18.8672 -70.8261 1.64267 -19.7916 -70.8427 2.0806 -20.7565 -70.9453 1.71245 
-21.7451 -71.029 1.85455 -22.3683 -71.3973 2.22349 -18.0798 -70.9165 1.15484 
-17.6506 -71.5418 1.05354 -18.8129 -71.1198 0.842358 -19.7864 -71.1495 1.08687 
-20.4383 -71.4289 1.05081 -20.9575 -71.6826 1.35644 -21.7755 -71.7892 1.65355 
-18.2978 -71.6155 0.574853 -19.129 -71.5343 0.514074 -19.7509 -71.7764 0.647547 
-21.1376 -71.9385 9.0551 -21.0372 -72.7542 9.3579 -20.5358 -72.3373 8.92484 
-22.1518 -72.7063 9.53187 -22.8679 -72.3646 9.54677 -23.773 -72.3266 9.33663 
-24.3354 -72.6257 8.89096 -18.2524 -72.1976 7.8912 -18.0109 -72.4947 8.39657 
-17.5262 -72.5648 7.83218 -19.0173 -71.9279 7.98354 -18.8251 -72.3913 8.51746 
-19.8607 -72.3745 8.70373 -25.0358 -72.6629 8.5943 -25.8565 -72.3612 8.49962 
-26.7877 -72.404 8.34088 -27.3363 -72.7938 7.75417 -13.0198 -72.3454 7.00646 
-13.0837 -72.7047 7.39516 -12.6893 -72.4229 7.00232 -13.4243 -72.5873 7.08905 
-18.0533 -72.1532 6.98338 -17.4215 -72.518 6.70266 -18.8193 -71.8676 7.24134 
-27.9761 -71.8454 7.1911 -27.6395 -72.3205 6.94761 -12.8713 -72.6394 6.73814 
-14.0198 -72.4396 6.31168 -13.7928 -72.5339 6.01529 -14.0262 -72.3296 6.06341 
-14.3036 -72.8223 6.05026 -18.1061 -72.2377 6.03581 -17.6286 -72.594 5.87892 
-18.816 -71.9049 6.25172 -23.2037 -72.0647 5.97677 -22.5822 -72.6919 5.89656 
-23.2781 -72.5018 6.34326 -23.8857 -72.4991 6.31813 -24.3133 -72.4137 5.68157 
-27.5204 -72.5514 5.94285 -14.0165 -72.4743 5.76898 -18.1747 -72.478 5.38279 
-18.4464 -72.5543 4.63338 -18.8616 -72.0691 5.23091 -23.0372 -71.9915 5.25646 
-22.5627 -72.3902 4.66077 -24.2936 -72.2356 4.77006 -27.543 -72.5664 4.91901 
-15.0488 -72.3903 3.95739 -14.8588 -72.6613 4.32194 -14.8393 -72.5519 3.9292 
-15.2358 -72.7969 4.06551 -18.8864 -71.9841 4.00854 -18.3878 -72.5037 3.8387 
-22.4303 -72.4164 3.62686 -23.9264 -72.6511 4.56107 -23.6783 -72.6412 3.88953 
-24.1115 -72.0755 3.86442 -27.4209 -72.5344 4.02025 -14.8433 -72.6682 3.59939 
-15.981 -72.7802 3.13045 -15.5297 -72.4772 2.57639 -16.1928 -72.271 2.66081 
-16.583 -72.6883 2.99663 -18.0201 -72.0309 2.95971 -18.0427 -72.5737 3.41199 
-17.521 -72.5351 2.95064 -22.3679 -72.2872 2.67799 -23.9463 -72.1791 3.14241 
-23.6213 -72.7946 2.88366 -24.6231 -71.9948 3.07202 -25.4979 -72.5739 2.74744 
-26.1465 -72.5348 3.20074 -26.9116 -72.5017 3.49763 -15.9668 -72.2353 2.16392 
-15.6199 -72.5317 1.84815 -16.8592 -72.4294 2.67987 -16.8715 -72.1464 2.19699 
-22.1562 -72.1082 2.03124 -21.6768 -72.5146 1.97866 -22.0682 -72.5481 2.35895 
-24.2505 -72.434 2.43549 -24.9485 -72.572 2.3429 -16.2968 -72.4873 1.49563 
-16.9639 -72.3299 1.40824 -17.3065 -72.4401 0.961557 -20.196 -71.9568 0.943406 
-19.6428 -72.4663 0.780571 -20.1392 -72.6039 1.16692 -20.897 -72.6236 1.56053 
-17.9575 -72.6508 0.507636 -18.9604 -72.4087 0.48598 -18.0122 -72.9955 8.83434 
-17.8872 -73.8382 9.36697 -17.3388 -73.3977 8.88438 -19.1985 -72.9878 9.02832 
-18.9535 -73.6594 9.4042 -20.0432 -72.8455 9.07186 -20.0703 -73.5663 9.40871 
-21.1131 -73.7583 9.53055 -21.9846 -73.5609 9.51972 -23.0488 -73.2378 9.39354 
-23.8545 -73.0988 9.04296 -23.5828 -73.8784 8.97447 -11.1242 -73.1275 7.76899 
-11.2263 -73.7406 8.32585 -10.4007 -73.5862 8.00606 -12.1334 -73.0854 8.03235 
-12.0324 -73.6236 8.38367 -12.7694 -73.0333 7.88907 -12.787 -73.4707 8.31699 
-13.4629 -73.7099 7.86333 -17.113 -73.1158 8.23828 -16.9287 -73.4617 8.51544 
-16.5349 -73.5403 7.84268 -24.3417 -73.5134 8.65378 -25.1661 -73.6691 8.48155 
-26.0674 -73.2639 8.38073 -26.889 -73.1382 8.10633 -26.5958 -73.8946 7.83022 
-10.2018 -73.2144 7.18044 -9.78929 -73.4987 7.35392 -9.72381 -73.5213 6.72402 
-10.7842 -73.1045 6.9899 -12.0051 -72.8714 7.18795 -13.8055 -72.7796 6.66305 
-13.8455 -73.1879 7.32542 -14.2912 -73.606 6.66565 -16.9008 -72.9901 7.24348 
-16.3985 -73.4776 6.69817 -21.2841 -73.2567 6.99747 -20.6798 -73.5559 6.91244 
-20.742 -73.7603 7.39262 -21.6003 -73.5876 7.32741 -22.0972 -73.1549 6.79061 
-22.2446 -73.6975 7.00479 -27.1024 -73.4259 7.60659 -27.3806 -73.512 6.79416 
-10.2882 -73.6684 6.464 -11.2217 -73.6179 6.60759 -12.1896 -73.3518 6.46631 
-13.102 -72.9728 6.00654 -12.4893 -73.657 5.85492 -14.6449 -73.7701 5.7909 
-17.0351 -73.0075 6.07288 -16.4622 -73.5539 5.65395 -21.1209 -73.3814 6.44081 
-21.7435 -73.0795 6.21302 -21.3825 -73.4934 5.66131 -23.007 -73.4144 6.49003 
-23.8776 -73.1077 6.06024 -23.5484 -73.76 5.92425 -27.5477 -73.4409 5.76936 
-12.4146 -73.6607 5.06158 -12.8447 -73.1472 5.00719 -14.001 -72.9927 4.98574 
-14.826 -73.3179 5.33837 -15.0038 -72.9784 4.79099 -15.2559 -73.5096 4.67155 
-17.1408 -73.2668 5.02764 -16.6792 -73.6759 4.83579 -17.7411 -72.8532 5.16733 
-22.0011 -73.0557 5.22551 -21.5465 -73.5821 4.71478 -24.0201 -73.0067 5.36121 
-23.6489 -73.533 4.95486 -27.5683 -73.57 4.90049 -12.2828 -73.1987 4.08613 
-11.9792 -73.814 4.40478 -11.7065 -73.7059 3.70033 -13.2329 -73.1472 3.9107 
-13.7017 -73.5441 4.08561 -13.9713 -73.5719 4.2241 -14.3239 -73.1707 3.92123 
-15.5316 -73.5404 3.92839 -17.2016 -73.5324 4.3482 -17.2924 -73.4935 3.77011 
-17.7938 -72.999 4.00936 -22.0359 -73.0778 4.19163 -21.5293 -73.5927 3.69702 
-23.5 -73.5271 3.95539 -27.3412 -73.4679 4.02874 -12.0476 -73.3373 3.36868 
-12.3185 -73.6226 2.59378 -12.8639 -73.0716 2.98303 -13.7961 -73.4834 3.66526 
-14.0928 -73.0301 3.03567 -15.2353 -72.8983 3.18886 -15.9211 -73.3972 3.49558 
-17.2177 -72.9761 3.19075 -16.6564 -73.4036 3.47358 -21.8772 -72.9761 2.95539 
-21.3381 -73.5125 2.84362 -23.3377 -73.6281 2.98964 -26.016 -73.0021 2.86376 
-26.3746 -73.5615 3.08782 -26.8283 -73.4393 3.52022 -12.9283 -73.2167 2.16305 
-12.6767 -73.7207 1.92062 -13.8287 -73.0636 1.92314 -14.9692 -72.8294 2.02246 
[...]
CELL_DATA 12348
SCALARS scalars float
LOOKUP_TABLE default
1021 1021 1021 1021 1021 1021 1021 1021 1021 
1021 1021 1021 1021 1021 1021 1021 1021 1021 
1021 1021 1021 1021 1021 1021 1021 1021 1021 
1021 1021 1021 1021 1021 1021 1021 1021 1021 
1021 1021 1021 1021 1021 1021 1021 1021 1021 
1021 1021 1021 1021 1021 1021 1021 1021 1021 
1021 1021 1021 1021 1021 1021 1021 1021 1021 
1021 1021 1021 1021 1021 1021 1021 1021 1021 
1021 1021 1021 1021 1021 1021 1021 1021 1021 
1021 1021 1021 1021 1021 1021 1021 1021 1021 
1021 1021 1021 1021 1021 1021 1021 1021 1021 
1021 1021 1021 1021 1021 1021 1021 1021 1021 
1021 1021 1021 1021 1021 1021 1021 1021 1021 
1021 1021 1021 1021 1021 1021 1021 1021 1021 
1021 1021 1021 1021 1021 1021 1021 1021 1021 
1021 1021 1021 1021 1021 1021 1021 1021 1021 
1021 1021 1021 1021 1021 1021 1021 1021 1021 
1021 1021 1021 1021 1021 1021 1021 1021 1021 
1021 1021 1021 1021 1021 1021 1021 1021 1021 
1021 1021 1021 1021 1021 1021 1021 1021 1021 
1021 1021 1021 1021 1021 1021 1021 1021 1021 
1021 1021 1021 1021 1021 1021 1021 1021 1021 
1021 1021 1021 1021 1021 1021 1021 1021 1021 
1021 1021 1021 1021 1021 1021 1021 1021 1021 
1021 1021 1021 1021 1021 1021 1021 1021 1021 
1021 1021 1021 1021 1021 1021 1021 1021 1021 
1021 1021 1021 1021 1021 1021 1021 1021 1021 
1021 1021 1021 1021 1021 1021 1021 1021 1021 
1021 1021 1021 1021 1021 1021 1021 1021 1021 
1021 1021 1021 1021 1021 1021 1021 1021 1021 
1021 1021 1021 1021 1021 1021 1021 1021 1021 
1021 1021 1021 1021 1021 1021 1021 1021 1021 
1021 1021 1021 1021 1021 1021 1021 1021 1021 
1021 1021 1021 1021 1021 1021 1021 1021 1021 
1021 1021 1021 1021 1021 1021 1021 1021 1021 
1021 1021 1021 1021 1021 1021 1021 1021 1021 
1021 1021 1021 1021 1021 1021 1021 1021 1021 
1021 1021 1021 1021 1021 1021 1021 1021 1021 
1021 1021 1021 1021 1021 1021 1021 1021 1021 
1021 1021 1021 1021 1021 1021 1021 1021 1021 
1021 1021 1021 1021 1021 1021 1021 1021 1021 
1021 1021 1021 1021 1021 1021 1021 1021 1021 
1021 1021 1021 1021 1021 1021 1021 1021 1021 
1021 1021 1021 1021 1021 1021 1021 1021 1021 
1021 1021 1021 1021 1021 1021 1021 1021 1021 
1021 1021 1021 1021 1021 1021 1021 1021 1021 
1021 1021 1021 1021 1021 1021 1021 1021 1021 
1021 1021 1021 1021 1021 1021 1021 1021 1021 
1021 1021 1021 1021 1021 1021 1021 1021 1021 
1021 1021 1021 1021 1021 1021 1021 1021 1021 
1021 1021 1021 1021 1021 1021 1021 1021 1021 
1021 1021 1021 1021 1021 1021 1021 1021 1021 
1021 1021 1021 1021 1021 1021 1021 1021 1021 
1021 1021 1021 1021 1021 1021 1021 1021 1021 
1021 1021 1021 1021 1021 1021 1021 1021 1021 
1021 1021 1021 1021 1021 1021 1021 1021 1021 
1021 1021 1021 1021 1021 1021 1021 1021 1021 
1021 1021 1021 1021 1021 1021 1021 1021 1021 
1021 1021 1021 1021 1021 1021 1021 1021 1021 
1021 1021 1021 1021 1021 1021 1021 1021 1021 
1021 1021 1021 1021 1021 1021 1021 1021 1021 
1021 1021 1021 1021 1021 1021 1021 1021 1021 
1021 1021 1021 1021 1021 1021 1021 1021 1021 
1021 1021 1021 1021 1021 1021 1021 1021 1021 
1021 1021 1021 1021 1021 1021 1021 1021 1021 
1021 1021 1021 1021 1021 1021 1021 1021 1021 
1021 1021 1021 1021 1021 1021 1021 1021 1021 
1021 1021 1021 1021 1021 1021 1021 1021 1021 
1021 1021 1021 1021 1021 1021 1021 1021 1021 
1021 1021 1021 1021 1021 1021 1021 1021 1021 
1021 1021 1021 1021 1021 1021 1021 1021 1021 
1021 1021 1021 1021 1021 1021 1021 1021 1021 
1021 1021 1021 1021 1021 1021 1021 1021 1021 
1021 1021 1021 1021 1021 1021 1021 1021 1021 
1021 1021 1021 1021 1021 1021 1021 1021 1021 
1021 1021 1021 1021 1021 1021 1021 1021 1021 
1021 1021 1021 1021 1021 1021 1021 1021 1021 
1021 1021 1021 1021 1021 1021 1021 1021 1021 
1021 1021 1021 1021 1021 1021 1021 1021 1021 
1021 1021 1021 1021 1021 1021 1021 1021 1021 
1021 1021 1021 1021 1021 1021 1021 1021 1021 
1021 1021 1021 1021 1021 1021 1021 1021 1021 
1021 1021 1021 1021 1021 1021 1021 1021 1021 
1021 1021 1021 1021 1021 1021 1021 1021 1021 
1021 1021 1021 1021 1021 1021 1021 1021 1021 
1021 1021 1021 1021 1021 1021 1021 1021 1021 
1021 1021 1021 1021 1021 1021 1021 1021 1021 
1021 1021 1021 1021 1021 1021 1021 1021 1021 
1021 1021 1021 1021 1021 1021 1021 1021 1021 
1021 1021 1021 1021 1021 1021 1021 1021 1021 
1021 1021 1021 1021 1021 1021 1021 1021 1021 
1021 1021 1021 1021 1021 1021 1021 1021 1021 
1021 1021 1021 1021 1021 1021 1021 1021 1021 
1021 1021 1021 1021 1021 1021 1021 1021 1021 
1021 1021 1021 1021 1021 1021 1021 1021 1021 
1021 1021 1021 1021 1021 1021 1021 1021 1021 
1021 1021 1021 1021 1021 1021 1021 1021 1021 
1021 1021 1021 1021 1021 1021 1021 1021 1021 
1021 1021 1021 1021 1021 1021 1021 1021 1021 
1021 1021 1021 1021 1021 1021 1021 1021 1021 
1021 1021 1021 1021 1021 1021 1021 1021 1021 
1021 1021 1021 1021 1021 1021 1021 1021 1021 
1021 1021 1021 1021 1021 1021 1021 1021 1021 
1021 1021 1021 1021 1021 1021 1021 1021 1021 
1021 1021 1021 1021 1021 1021 1021 1021 1021 
1021 1021 1021 1021 1021 1021 1021 1021 1021 
1021 1021 1021 1021 1021 1021 1021 1021 1021 
1021 1021 1021 1021 1021 1021 1021 1021 1021 
1021 1021 1021 1021 1021 1021 1021 1021 1021 
1021 1021 1021 1021 1021 1021 1021 1021 1021 
1021 1021 1021 1021 1021 1021 1021 1021 1021 
1021 1021 1021 1021 1021 1021 1021 1021 1021 
1021 1021 1021 1021 1021 1021 1021 1021 1021 
1021 1021 1021 1021 1021 1021 1021 1021 1021 
1021 1021 1021 1021 1021 1021 1021 1021 1021 
1021 1021 1021 1021 1021 1021 1021 1021 1021 
1021 1021 1021 1021 1021 1021 1021 1021 1021 
1021 1021 1021 1021 1021 1021 1021 1021 1021 
1021 1021 1021 1021 1021 1021 1021 1021 1021 
1021 1021 1021 1021 1021 1021 1021 1021 1021 
1021 1021 1021 1021 1021 1021 1021 1021 1021 
1021 1021 1021 1021 1021 1021 1021 1021 1021 
1021 1021 1021 1021 1021 1021 1021 1021 1021 
1021 1021 1021 1021 1021 1021 1021 1021 1021 
1021 1021 1021 1021 1021 1021 1021 1021 1021 
1021 1021 1021 1021 1021 1021 1021 1021 1021 
1021 1021 1021 1021 1021 1021 1021 1021 1021 
1021 1021 1021 1021 1021 1021 1021 1021 1021 
1021 1021 1021 1021 1021 1021 1021 1021 1021 
1021 1021 1021 1021 1021 1021 1021 1021 1021 
1021 1021 1021 1021 1021 1021 1021 1021 1021 
1021 1021 1021 1021 1021 1021 1021 1021 1021 
1021 1021 1021 1021 1021 1021 1021 1021 1021 
1021 1021 1021 1021 1021 1021 1021 1021 1021 
1021 1021 1021 1021 1021 1021 1021 1021 1021 
1021 1021 1021 1021 1021 1021 1021 1021 1021 
1021 1021 1021 1021 1021 1021 1021 1021 1021 
1021 1021 1021 1021 1021 1021 1021 1021 1021 
1021 1021 1021 1021 1021 1021 1021 1021 1021 
1021 1021 1021 1021 1021 1021 1021 1021 1021 
1021 1021 1021 1021 1021 1021 1021 1021 1021 
1021 1021 1021 1021 1021 1021 1021 1021 1021 
1021 1021 1021 1021 1021 1021 1021 1021 1021 
1021 1021 1021 1021 1021 1021 1021 1021 1021 
1021 1021 1021 1021 1021 1021 1021 1021 1021 
1021 1021 1021 1021 1021 1021 1021 1021 1021 
1021 1021 1021 1021 1021 1021 1021 1021 1021 
1021 1021 1021 1021 1021 1021 1021 1021 1021 
1021 1021 1021 1021 1021 1021 1021 1021 1021 
1021 1021 1021 1021 1021 1021 1021 1021 1021 
1021 1021 1021 1021 1021 1021 1021 1021 1021 
1021 1021 1021 1021 1021 1021 1021 1021 1021 
1021 1021 1021 1021 1021 1021 1021 1021 1021 
1021 1021 1021 1021 1021 1021 1021 1021 1021 
1021 1021 1021 1021 1021 1021 1021 1021 1021 
1021 1021 1021 1021 1021 1021 1021 1021 1021 
1021 1021 1021 1021 1021 1021 1021 1021 1021 
1021 1021 1021 1021 1021 1021 1021 1021 1021 
1021 1021 1021 1021 1021 1021 1021 1021 1021 
1021 1021 1021 1021 1021 1021 1021 1021 1021 
1021 1021 1021 1021 1021 1021 1021 1021 1021 
1021 1021 1021 1021 1021 1021 1021 1021 1021 
1021 1021 1021 1021 1021 1021 1021 1021 1021 
1021 1021 1021 1021 1021 1021 1021 1021 1021 
1021 1021 1021 1021 1021 1021 1021 1021 1021 
1021 1021 1021 1021 1021 1021 1021 1021 1021 
1021 1021 1021 1021 1021 1021 1021 1021 1021 
1021 1021 1021 1021 1021 1021 1021 1021 1021 
1021 1021 1021 1021 1021 1021 1021 1021 1021 
1021 1021 1021 1021 1021 1021 1021 1021 1021 
1021 1021 1021 1021 1021 1021 1021 1021 1021 
1021 1021 1021 1021 1021 1021 1021 1021 1021 
1021 1021 1021 1021 1021 1021 1021 1021 1021 
1021 1021 1021 1021 1021 1021 1021 1021 1021 
1021 1021 1021 1021 1021 1021 1021 1021 1021 
1021 1021 1021 1021 1021 1021 1021 1021 1021 
1021 1021 1021 1021 1021 1021 1021 1021 1021 
1021 1021 1021 1021 1021 1021 1021 1021 1021 
1021 1021 1021 1021 1021 1021 1021 1021 1021 
1021 1021 1021 1021 1021 1021 1021 1021 1021 
1021 1021 1021 1021 1021 1021 1021 1021 1021 
1021 1021 1021 1021 1021 1021 1021 1021 1021 
1021 1021 1021 1021 1021 1021 1021 1021 1021 
1021 1021 1021 1021 1021 1021 1021 1021 1021 
1021 1021 1021 1021 1021 1021 1021 1021 1021 
1021 1021 1021 1021 1021 1021 1021 1021 1021 
1021 1021 1021 1021 1021 1021 1021 1021 1021 
1021 1021 1021 1021 1021 1021 1021 1021 1021 
1021 1021 1021 1021 1021 1021 1021 1021 1021 
1021 1021 1021 1021 1021 1021 1021 1021 1021 
1021 1021 1021 1021 1021 1021 1021 1021 1021 
1021 1021 1021 1021 1021 1021 1021 1021 1021 
1021 1021 1021 1021 1021 1021 1021 1021 1021 
1021 1021 1021 1021 1021 1021 1021 1021 1021 
1021 1021 1021 1021 1021 1021 1021 1021 1021 
1021 1021 1021 1021 1021 1021 1021 1021 1021 
1021 1021 1021 1021 1021 1021 1021 1021 1021 
1021 1021 1021 1021 1021 1021 1021 1021 1021 
1021 1021 1021 1021 1021 1021 1021 1021 1021 
1021 1021 1021 1021 1021 1021 1021 1021 1021 
1021 1021 1021 1021 1021 1021 1021 1021 1021 
1021 1021 1021 1021 1021 1021 1021 1021 1021 
1021 1021 1021 1021 1021 1021 1021 1021 1021 
1021 1021 1021 1021 1021 1021 1021 1021 1021 
1021 1021 1021 1021 1021 1021 1021 1021 1021 
1021 1021 1021 1021 1021 1021 1021 1021 1021 
1021 1021 1021 1021 1021 1021 1021 1021 1021 
1021 1021 1021 1021 1021 1021 1021 1021 1021 
1021 1021 1021 1021 1021 1021 1021 1021 1021 
1021 1021 1021 1021 1021 1021 1021 1021 1021 
1021 1021 1021 1021 1021 1021 1021 1021 1021 
1021 1021 1021 1021 1021 1021 1021 1021 1021 
1021 1021 1021 1021 1021 1021 1021 1021 1021 
1021 1021 1021 1021 1021 1021 1021 1021 1021 
1021 1021 1021 1021 1021 1021 1021 1021 1021 
1021 1021 1021 1021 1021 1021 1021 1021 1021 
1021 1021 1021 1021 1021 1021 1021 1021 1021 
1021 1021 1021 1021 1021 1021 1021 1021 1021 
1021 1021 1021 1021 1021 1021 1021 1021 1021 
1021 1021 1021 1021 1021 1021 1021 1021 1021 
1021 1021 1021 1021 1021 1021 1021 1021 1021 
1021 1021 1021 1021 1021 1021 1021 1021 1021 
1021 1021 1021 1021 1021 1021 1021 1021 1021 
1021 1021 1021 1021 1021 1021 1021 1021 1021 
1021 1021 1021 1021 1021 1021 1021 1021 1021 
1021 1021 1021 1021 1021 1021 1021 1021 1021 
1021 1021 1021 1021 1021 1021 1021 1021 1021 
1021 1021 1021 1021 1021 1021 1021 1021 1021 
1021 1021 1021 1021 1021 1021 1021 1021 1021 
1021 1021 1021 1021 1021 1021 1021 1021 1021 
1021 1021 1021 1021 1021 1021 1021 1021 1021 
1021 1021 1021 1021 1021 1021 1021 1021 1021 
1021 1021 1021 1021 1021 1021 1021 1021 1021 
1021 1021 1021 1021 1021 1021 1021 1021 1021 
1021 1021 1021 1021 1021 1021 1021 1021 1021 
1021 1021 1021 1021 1021 1021 1021 1021 1021 
1021 1021 1021 1021 1021 1021 1021 1021 1021 
1021 1021 1021 1021 1021 1021 1021 1021 1021 
1021 1021 1021 1021 1021 1021 1021 1021 1021 
1021 1021 1021 1021 1021 1021 1021 1021 1021 
1021 1021 1021 1021 1021 1021 1021 1021 1021 
1021 1021 1021 1021 1021 1021 1021 1021 1021 
1021 1021 1021 1021 1021 1021 1021 1021 1021 
1021 1021 1021 1021 1021 1021 1021 1021 1021 
1021 1021 1021 1021 1021 1021 1021 1021 1021 
1021 1021 1021 1021 1021 1021 1021 1021 1021 
1021 1021 1021 1021 1021 1021 1021 1021 1021 
1021 1021 1021 1021 1021 1021 1021 1021 1021 
1021 1021 1021 1021 1021 1021 1021 1021 1021 
1021 1021 1021 1021 1021 1021 1021 1021 1021 
1021 1021 1021 1021 1021 1021 1021 1021 1021 
1021 1021 1021 1021 1021 1021 1021 1021 1021 
1021 1021 1021 1021 1021 1021 1021 1021 1021 
1021 1021 1021 1021 1021 1021 1021 1021 1021 
1021 1021 1021 1021 1021 1021 1021 1021 1021 
1021 1021 1021 1021 1021 1021 1021 1021 1021 
1021 1021 1021 1021 1021 1021 1021 1021 1021 
1021 1021 1021 1021 1021 1021 1021 1021 1021 
1021 1021 1021 1021 1021 1021 1021 1021 1021 
1021 1021 1021 1021 1021 1021 1021 1021 1021 
1021 1021 1021 1021 1021 1021 1021 1021 1021 
1021 1021 1021 1021 1021 1021 1021 1021 1021 
1021 1021 1021 1021 1021 1021 1021 1021 1021 
1021 1021 1021 1021 1021 1021 1021 1021 1021 
1021 1021 1021 1021 1021 1021 1021 1021 1021 
1021 1021 1021 1021 1021 1021 1021 1021 1021 
1021 1021 1021 1021 1021 1021 1021 1021 1021 
1021 1021 1021 1021 1021 1021 1021 1021 1021 
1021 1021 1021 1021 1021 1021 1021 1021 1021 
1021 1021 1021 1021 1021 1021 1021 1021 1021 
1021 1021 1021 1021 1021 1021 1021 1021 1021 
1021 1021 1021 1021 1021 1021 1021 1021 1021 
1021 1021 1021 1021 1021 1021 1021 1021 1021 
1021 1021 1021 1021 1021 1021 1021 1021 1021 
1021 1021 1021 1021 1021 1021 1021 1021 1021 
1021 1021 1021 1021 1021 1021 1021 1021 1021 
1021 1021 1021 1021 1021 1021 1021 1021 1021 
1021 1021 1021 1021 1021 1021 1021 1021 1021 
1021 1021 1021 1021 1021 1021 1021 1021 1021 
1021 1021 1021 1021 1021 1021 1021 1021 1021 
1021 1021 1021 1021 1021 1021 1021 1021 1021 
1021 1021 1021 1021 1021 1021 1021 1021 1021 
1021 1021 1021 1021 1021 1021 1021 1021 1021 
1021 1021 1021 1021 1021 1021 1021 1021 1021 
1021 1021 1021 1021 1021 1021 1021 1021 1021 
1021 1021 1021 1021 1021 1021 1021 1021 1021 
1021 1021 1021 1021 1021 1021 1021 1021 1021 
1021 1021 1021 1021 1021 1021 1021 1021 1021 
1021 1021 1021 1021 1021 1021 1021 1021 1021 
1021 1021 1021 1021 1021 1021 1021 1021 1021 
1021 1021 1021 1021 1021 1021 1021 1021 1021 
1021 1021 1021 1021 1021 1021 1021 1021 1021 
1021 1021 1021 1021 1021 1021 1021 1021 1021 
1021 1021 1021 1021 1021 1021 1021 1021 1021 
1021 1021 1021 1021 1021 1021 1021 1021 1021 
1021 1021 1021 1021 1021 1021 1021 1021 1021 
1021 1021 1021 1021 1021 1021 1021 1021 1021 
1021 1021 1021 1021 1021 1021 1021 1021 1021 
1021 1021 1021 1021 1021 1021 1021 1021 1021 
1021 1021 1021 1021 1021 1021 1021 1021 1021 
1021 1021 1021 1021 1021 1021 1021 1021 1021 
1021 1021 1021 1021 1021 1021 1021 1021 1021 
1021 1021 1021 1021 1021 1021 1021 1021 1021 
1021 1021 1021 1021 1021 1021 1021 1021 1021 
1021 1021 1021 1021 1021 1021 1021 1021 1021 
1021 1021 1021 1021 1021 1021 1021 1021 1021 
1021 1021 1021 1021 1021 1021 1021 1021 1021 
1021 1021 1021 1021 1021 1021 1021 1021 1021 
1021 1021 1021 1021 1021 1021 1021 1021 1021 
1021 1021 1021 1021 1021 1021 1021 1021 1021 
1021 1021 1021 1021 1021 1021 1021 1021 1021 
1021 1021 1021 1021 1021 1021 1021 1021 1021 
1021 1021 1021 1021 1021 1021 1021 1021 1021 
1021 1021 1021 1021 1021 1021 1021 1021 1021 
1021 1021 1021 1021 1021 1021 1021 1021 1021 
1021 1021 1021 1021 1021 1021 1021 1021 1021 
1021 1021 1021 1021 1021 1021 1021 1021 1021 
1021 1021 1021 1021 1021 1021 1021 1021 1021 
1021 1021 1021 1021 1021 1021 1021 1021 1021 
1021 1021 1021 1021 1021 1021 1021 1021 1021 
1021 1021 1021 1021 1021 1021 1021 1021 1021 
1021 1021 1021 1021 1021 1021 1021 1021 1021 
1021 1021 1021 1021 1021 1021 1021 1021 1021 
1021 1021 1021 1021 1021 1021 1021 1021 1021 
1021 1021 1021 1021 1021 1021 1021 1021 1021 
1021 1021 1021 1021 1021 1021 1021 1021 1021 
1021 1021 1021 1021 1021 1021 1021 1021 1021 
1021 1021 1021 1021 1021 1021 1021 1021 1021 
1021 1021 1021 1021 1021 1021 1021 1021 1021 
1021 1021 1021 1021 1021 1021 1021 1021 1021 
1021 1021 1021 1021 1021 1021 1021 1021 1021 
1021 1021 1021 1021 1021 1021 1021 1021 1021 
1021 1021 1021 1021 1021 1021 1021 1021 1021 
1021 1021 1021 1021 1021 1021 1021 1021 1021 
1021 1021 1021 1021 1021 1021 1021 1021 1021 
1021 1021 1021 1021 1021 1021 1021 1021 1021 
1021 1021 1021 1021 1021 1021 1021 1021 1021 
1021 1021 1021 1021 1021 1021 1021 1021 1021 
1021 1021 1021 1021 1021 1021 1021 1021 1021 
1021 1021 1021 1021 1021 1021 1021 1021 1021 
1021 1021 1021 1021 1021 1021 1021 1021 1021 
1021 1021 1021 1021 1021 1021 1021 1021 1021 
1021 1021 1021 1021 1021 1021 1021 1021 1021 
1021 1021 1021 1021 1021 1021 1021 1021 1021 
1021 1021 1021 1021 1021 1021 1021 1021 1021 
1021 1021 1021 1021 1021 1021 1021 1021 1021 
1021 1021 1021 1021 1021 1021 1021 1021 1021 
1021 1021 1021 1021 1021 1021 1021 1021 1021 
1021 1021 1021 1021 1021 1021 1021 1021 1021 
1021 1021 1021 1021 1021 1021 1021 1021 1021 
1021 1021 1021 1021 1021 1021 1021 1021 1021 
1021 1021 1021 1021 1021 1021 1021 1021 1021 
1021 1021 1021 1021 1021 1021 1021 1021 1021 
1021 1021 1021 1021 1021 1021 1021 1021 1021 
1021 1021 1021 1021 1021 1021 1021 1021 1021 
1021 1021 1021 1021 1021 1021 1021 1021 1021 
1021 1021 1021 1021 1021 1021 1021 1021 1021 
1021 1021 1021 1021 1021 1021 1021 1021 1021 
1021 1021 1021 1021 1021 1021 1021 1021 1021 
1021 1021 1021 1021 1021 1021 1021 1021 1021 
1021 1021 1021 1021 1021 1021 1021 1021 1021 
1021 1021 1021 1021 1021 1021 1021 1021 1021 
1021 1021 1021 1021 1021 1021 1021 1021 1021 
1021 1021 1021 1021 1021 1021 1021 1021 1021 
1021 1021 1021 1021 1021 1021 1021 1021 1021 
1021 1021 1021 1021 1021 1021 1021 1021 1021 
1021 1021 1021 1021 1021 1021 1021 1021 1021 
1021 1021 1021 1021 1021 1021 1021 1021 1021 
1021 1021 1021 1021 1021 1021 1021 1021 1021 
1021 1021 1021 1021 1021 1021 1021 1021 1021 
1021 1021 1021 1021 1021 1021 1021 1021 1021 
1021 1021 1021 1021 1021 1021 1021 1021 1021 
1021 1021 1021 1021 1021 1021 1021 1021 1021 
1021 1021 1021 1021 1021 1021 1021 1021 1021 
1021 1021 1021 1021 1021 1021 1021 1021 1021 
1021 1021 1021 1021 1021 1021 1021 1021 1021 
1021 1021 1021 1021 1021 1021 1021 1021 1021 
1021 1021 1021 1021 1021 1021 1021 1021 1021 
1021 1021 1021 1021 1021 1021 1021 1021 1021 
1021 1021 1021 1021 1021 1021 1021 1021 1021 
1021 1021 1021 1021 1021 1021 1021 1021 1021 
1021 1021 1021 1021 1021 1021 1021 1021 1021 
1021 1021 1021 1021 1021 1021 1021 1021 1021 
1021 1021 1021 1021 1021 1021 1021 1021 1021 
1021 1021 1021 1021 1021 1021 1021 1021 1021 
1021 1021 1021 1021 1021 1021 1021 1021 1021 
1021 1021 1021 1021 1021 1021 1021 1021 1021 
1021 1021 1021 1021 1021 1021 1021 1021 1021 
1021 1021 1021 1021 1021 1021 1021 1021 1021 
1021 1021 1021 1021 1021 1021 1021 1021 1021 
1021 1021 1021 1021 1021 1021 1021 1021 1021 
1021 1021 1021 1021 1021 1021 1021 1021 1021 
1021 1021 1021 1021 1021 1021 1021 1021 1021 
1021 1021 1021 1021 1021 1021 1021 1021 1021 
1021 1021 1021 1021 1021 1021 1021 1021 1021 
1021 1021 1021 1021 1021 1021 1021 1021 1021 
1021 1021 1021 1021 1021 1021 1021 1021 1021 
1021 1021 1021 1021 1021 1021 1021 1021 1021 
1021 1021 1021 1021 1021 1021 1021 1021 1021 
1021 1021 1021 1021 1021 1021 1021 1021 1021 
1021 1021 1021 1021 1021 1021 1021 1021 1021 
1021 1021 1021 1021 1021 1021 1021 1021 1021 
1021 1021 1021 1021 1021 1021 1021 1021 1021 
1021 1021 1021 1021 1021 1021 1021 1021 1021 
1021 1021 1021 1021 1021 1021 1021 1021 1021 
1021 1021 1021 1021 1021 1021 1021 1021 1021 
1021 1021 1021 1021 1021 1021 1021 1021 1021 
1021 1021 1021 1021 1021 1021 1021 1021 1021 
1021 1021 1021 1021 1021 1021 1021 1021 1021 
1021 1021 1021 1021 1021 1021 1021 1021 1021 
1021 1021 1021 1021 1021 1021 1021 1021 1021 
1021 1021 1021 1021 1021 1021 1021 1021 1021 
1021 1021 1021 1021 1021 1021 1021 1021 1021 
1021 1021 1021 1021 1021 1021 1021 1021 1021 
1021 1021 1021 1021 1021 1021 1021 1021 1021 
1021 1021 1021 1021 1021 1021 1021 1021 1021 
1021 1021 1021 1021 1021 1021 1021 1021 1021 
1021 1021 1021 1021 1021 1021 1021 1021 1021 
1021 1021 1021 1021 1021 1021 1021 1021 1021 
1021 1021 1021 1021 1021 1021 1021 1021 1021 
1021 1021 1021 1021 1021 1021 1021 1021 1021 
1021 1021 1021 1021 1021 1021 1021 1021 1021 
1021 1021 1021 1021 1021 1021 1021 1021 1021 
1021 1021 1021 1021 1021 1021 1021 1021 1021 
1021 1021 1021 1021 1021 1021 1021 1021 1021 
1021 1021 1021 1021 1021 1021 1021 1021 1021 
1021 1021 1021 1021 1021 1021 1021 1021 1021 
1021 1021 1021 1021 1021 1021 1021 1021 1021 
1021 1021 1021 1021 1021 1021 1021 1021 1021 
1021 1021 1021 1021 1021 1021 1021 1021 1021 
1021 1021 1021 1021 1021 1021 1021 1021 1021 
1021 1021 1021 1021 1021 1021 1021 1021 1021 
1021 1021 1021 1021 1021 1021 1021 1021 1021 