# vtk DataFile Version 4.0
vtk output
ASCII
DATASET POLYDATA
POINTS 3260 float
35.0379 -8.19501 -30.3225 35.1691 -8.50546 -29.6943 35.6267 -8.37066 -30.1229 
34.6114 -8.61685 -30.0281 35.6699 -8.17735 -30.9266 36.2008 -8.51476 -30.5523 
36.3215 -8.45978 -31.0346 34.9518 -8.07696 -31.1713 34.609 -8.39588 -30.8517 
37.0446 -8.33433 -32.1004 37.1464 -8.55467 -31.682 37.3007 -8.77437 -32.038 
36.0041 -8.43019 -31.5794 36.8106 -8.47942 -31.9337 35.5873 -8.60073 -32.2055 
35.218 -8.22445 -31.8013 34.6581 -8.55428 -31.7194 36.7807 -8.68635 -32.3431 
35.0356 -8.8005 -32.3538 35.9887 -9.15467 -29.0933 35.9886 -9.46265 -28.6111 
36.5842 -9.4899 -29.0058 34.8766 -8.94079 -29.1914 35.2689 -9.45065 -28.4824 
33.9946 -9.16745 -29.1931 34.0813 -9.62258 -28.47 33.4962 -9.58539 -29.0055 
36.819 -9.18063 -29.7947 37.1922 -9.6467 -29.4405 37.3901 -9.59533 -30.1091 
35.9922 -8.7752 -29.8465 34.1768 -9.06931 -29.9093 33.5149 -9.65085 -29.9104 
36.7663 -8.79822 -31.0044 37.4785 -9.38852 -31.1415 34.3403 -9.2464 -31.053 
33.9615 -9.64661 -30.5974 37.6969 -9.68191 -31.9405 36.2857 -8.70373 -32.0502 
34.5742 -9.5245 -32.2362 37.1837 -9.44628 -32.455 35.9767 -9.31166 -32.6135 
35.073 -9.36045 -32.6291 35.9555 -9.95664 -28.2012 35.9661 -10.4848 -27.6284 
36.5605 -10.4996 -28.0107 34.7587 -9.9718 -27.9824 35.2513 -10.4747 -27.5053 
34.055 -10.0734 -27.993 34.0874 -10.6783 -27.5053 33.4875 -10.4769 -28.0177 
36.9274 -10.0409 -28.7764 37.1813 -10.659 -28.4486 37.4682 -10.4521 -29.1555 
32.9962 -9.99914 -29.319 32.991 -10.4466 -28.5045 32.4897 -10.6047 -29.0175 
37.6317 -10.5019 -30.0632 32.9997 -10.0257 -29.8982 32.5627 -10.4428 -29.728 
37.7361 -10.6263 -31.225 34.1002 -10.1296 -31.2112 33.519 -10.5483 -31.0455 
32.9343 -10.3852 -30.3855 38.0827 -10.2911 -31.9216 38.1305 -10.5716 -31.7796 
38.2076 -10.5337 -32.0469 34.2441 -10.2938 -31.8105 33.9885 -10.7524 -31.6244 
37.8452 -10.2332 -32.2815 37.0259 -10.3177 -32.5672 36.1235 -10.1332 -32.9779 
36.5338 -10.8725 -33.0491 35.0618 -9.95971 -32.9429 34.0223 -10.5589 -32.5185 
34.2199 -10.2994 -33.1235 33.5616 -10.6369 -33.0171 35.6882 -10.443 -33.4855 
34.6979 -10.5865 -33.5649 33.762 -10.7121 -33.3819 34.8696 -11.2159 -26.3159 
35.1637 -11.8152 -25.6887 35.5958 -11.4118 -26.1569 34.3982 -11.6408 -25.923 
35.8891 -10.9781 -27.0349 36.0476 -11.444 -26.4757 36.5736 -11.5106 -26.9484 
34.8399 -10.8384 -26.9961 34.1163 -11.3998 -26.4151 34.2291 -11.0596 -26.8397 
33.6288 -11.4141 -26.945 36.9157 -11.0971 -27.7512 37.1793 -11.6926 -27.4073 
37.4615 -11.4889 -28.1415 32.9754 -10.969 -28.0364 32.9941 -11.5013 -27.5326 
32.4931 -11.499 -28.0356 37.6289 -11.5655 -29.0171 31.9933 -11.0462 -29.3309 
32.0037 -11.5032 -28.5081 31.4901 -11.67 -29.0185 28.9234 -11.0666 -29.1243 
28.8754 -11.7632 -28.6875 29.5084 -11.4237 -29.1639 28.2415 -11.1317 -29.2468 
28.0575 -11.5319 -28.657 27.498 -11.7691 -29.0616 37.6139 -11.6144 -30.022 
32.1718 -10.981 -30.314 31.5125 -11.4979 -29.7727 29.6761 -11.148 -29.9011 
29.9782 -11.6799 -29.4952 30.4084 -11.6875 -29.8417 28.8772 -10.9921 -30.0181 
28.3594 -11.4438 -30.0883 27.9203 -11.6033 -29.5671 37.3745 -11.78 -30.7654 
32.7458 -10.934 -30.9451 32.2305 -11.2765 -31.0547 31.7738 -11.648 -30.6714 
30.1592 -11.5758 -30.5394 29.6156 -11.6334 -31.1665 29.2975 -11.1937 -30.8087 
28.7421 -11.3961 -30.8013 37.7702 -10.7736 -31.9526 37.2627 -11.3342 -31.5258 
37.1061 -11.0267 -32.2006 36.6959 -11.5481 -32.1878 34.0201 -10.8943 -32.0222 
33.5156 -11.2326 -31.9732 32.7485 -11.5547 -31.5102 32.1499 -11.5886 -31.2329 
29.0558 -11.7731 -31.3221 36.6 -11.5172 -33.0176 33.129 -11.0634 -33.1487 
33.1894 -11.2614 -32.6628 32.76 -11.7912 -32.8095 35.9033 -10.9506 -34.0862 
36.4496 -11.7048 -33.9925 35.1229 -10.912 -34.1859 34.5406 -11.3474 -34.0975 
33.9432 -11.5753 -33.7095 33.095 -11.5511 -33.3731 35.9169 -11.3847 -34.7253 
35.6011 -11.6547 -35.254 35.2716 -11.2424 -34.8655 34.6693 -11.6186 -34.7779 
35.0445 -11.8934 -35.3842 19.729 -12.205 -24.8723 20.0792 -12.7554 -24.5954 
20.2619 -12.4795 -25.1351 19.1306 -12.2175 -25.0485 19.2254 -12.4411 -24.695 
18.6784 -12.7558 -25.0992 36.126 -11.8881 -26.1203 35.9386 -12.496 -25.4624 
36.5842 -12.7765 -26.0881 35.1941 -12.4661 -25.283 33.6421 -11.9187 -26.1788 
34.2559 -12.3058 -25.477 32.9538 -12.2722 -26.2556 33.0568 -12.708 -25.5075 
32.4754 -12.7079 -26.0432 19.6264 -12.3869 -25.4514 18.8927 -12.572 -25.5286 
36.9266 -12.1073 -26.7133 37.074 -12.5553 -26.6607 37.3362 -12.2849 -27.2451 
33.1228 -11.912 -26.8072 32.4797 -12.428 -26.8217 37.4588 -12.4456 -27.9976 
32.0084 -12.0231 -28.0346 31.989 -12.5399 -27.5399 31.518 -12.5541 -28.0386 
37.4631 -12.4928 -28.9868 35.8712 -12.2905 -29.2546 36.4277 -12.5151 -29.3506 
36.1264 -12.5855 -28.7391 35.6688 -12.7172 -28.7951 30.9164 -12.0394 -29.3469 
31.0238 -12.5691 -28.5321 30.4531 -12.7072 -28.9618 29.0769 -12.8151 -28.6182 
29.6132 -12.1739 -29.0201 28.147 -12.3203 -28.4707 26.9898 -12.1869 -28.9747 
27.1271 -12.5881 -28.4817 26.5543 -12.732 -29.1075 37.3642 -12.4852 -29.9173 
36.0647 -12.1806 -30.1608 36.6882 -12.4382 -30.1038 35.5927 -12.5682 -29.7488 
31.0654 -11.8881 -30.161 30.244 -12.2652 -29.3244 28.0421 -12.0514 -30.1688 
27.5944 -12.4607 -29.9008 27.114 -12.545 -29.4137 37.1168 -12.4228 -30.4141 
36.6878 -11.961 -31.0339 35.9832 -12.1077 -31.2068 35.6336 -12.5646 -30.7929 
32.2104 -12.096 -31.1716 32.2205 -12.613 -31.0921 31.6872 -12.452 -30.7046 
30.8392 -12.3174 -30.6329 30.163 -12.0615 -30.9836 30.4598 -12.5952 -31.1402 
28.4204 -12.1386 -30.9225 27.9078 -12.6695 -30.6304 36.2163 -12.0963 -31.9887 
35.7209 -12.7302 -31.8867 32.9064 -11.8277 -32.2129 32.4551 -12.4029 -31.8831 
29.6633 -12.3416 -31.5123 28.8686 -12.4647 -31.5415 35.9901 -12.6642 -32.6344 
36.4253 -12.1698 -32.9866 32.4909 -12.4033 -32.9035 36.4463 -12.5795 -33.9171 
34.4806 -12.2945 -34.3147 34.0838 -12.8175 -33.711 32.9158 -12.5756 -33.4937 
36.1463 -11.9185 -34.9891 36.3294 -12.5202 -34.7771 34.698 -12.3356 -35.1166 
35.764 -12.3078 -35.4061 35.2144 -12.5885 -35.4185 35.7517 -13.0737 -24.9594 
36.1362 -13.7525 -24.7199 36.3814 -13.3533 -25.2177 34.7785 -12.9614 -24.9634 
35.3779 -13.7045 -24.4843 33.7354 -12.9862 -24.9999 34.2715 -13.4862 -24.498 
33.0779 -13.1308 -24.9765 33.3047 -13.4927 -24.5613 32.6198 -13.4203 -24.9105 
20.8051 -12.9316 -25.1202 20.8143 -13.304 -24.5121 21.4293 -13.5193 -25.1676 
20.1749 -13.4696 -24.2764 19.1907 -13.3796 -24.6581 18.6044 -13.4823 -25.294 
36.3883 -13.7201 -25.7118 31.9718 -13.106 -26.347 32.1766 -13.2601 -25.5618 
31.6387 -13.6054 -25.9596 21.0663 -13.0988 -25.8816 21.5232 -13.4614 -26.3319 
20.3104 -12.9179 -26.0668 19.2775 -13.0163 -26.0971 18.6581 -13.2397 -25.8036 
36.8198 -12.8972 -27.0979 36.2176 -13.3602 -26.4764 36.0029 -13.2421 -27.226 
35.7102 -13.8005 -26.8195 31.9631 -12.942 -26.9495 31.4832 -13.4715 -26.8418 
22.8933 -13.2715 -27.2931 23.2378 -13.7307 -26.7952 23.4 -13.4314 -27.3583 
22.5392 -13.7351 -27.0478 20.9651 -13.2222 -26.7559 21.4613 -13.6352 -27.1119 
20.4943 -13.454 -26.9668 19.8557 -13.6006 -26.6694 19.1836 -13.7894 -26.3458 
37.0568 -12.9249 -28.1123 36.2278 -12.9679 -28.0409 35.6089 -13.5241 -27.8875 
31.0319 -13.0981 -28.0456 31.0223 -13.5866 -27.5494 30.528 -13.5884 -28.0599 
26.9233 -13.2271 -28.0478 27.0992 -13.8721 -27.7657 27.3663 -13.3426 -28.0994 
26.4793 -13.5091 -27.9941 25.0453 -13.2418 -28.3464 25.0175 -13.5063 -27.6782 
25.46 -13.4633 -27.9787 24.6714 -13.5585 -27.8963 23.0191 -13.2733 -27.8213 
23.4011 -13.6745 -28.195 22.6794 -13.4545 -27.787 21.0527 -13.8109 -27.3471 
36.8648 -12.8385 -28.9331 35.4947 -13.4633 -28.9983 29.8857 -12.8113 -28.9387 
30.0103 -13.2883 -28.5376 29.153 -13.6141 -28.3812 28.1526 -13.2871 -28.3283 
25.6686 -13.0077 -28.9899 26.159 -13.1913 -28.4052 24.9819 -13.1083 -29.2759 
24.4927 -13.5773 -28.9461 22.8988 -13.682 -28.2316 36.9804 -12.7435 -29.7664 
35.5126 -13.4473 -30.0236 27.2647 -13.2453 -29.9798 26.8237 -13.2547 -29.7415 
26.1055 -13.1373 -29.7978 26.484 -13.712 -30.2935 25.291 -13.1617 -29.972 
24.7262 -13.4523 -29.9137 35.5548 -13.5073 -31.0426 31.9034 -12.9052 -31.309 
31.1324 -12.8777 -31.1078 28.1415 -12.9614 -31.4402 27.4782 -13.3738 -30.7451 
25.6743 -13.6401 -30.4178 24.9868 -13.7017 -30.413 35.5757 -13.7184 -31.8796 
32.0333 -12.906 -32.1874 31.3324 -13.1933 -32.0822 30.3048 -13.0663 -31.8575 
29.0752 -13.0068 -32.0082 28.2152 -13.2726 -32.1277 27.6818 -13.6592 -31.7587 
35.9116 -13.0016 -33.4083 35.5075 -13.5644 -32.7349 31.9793 -13.0448 -32.9412 
31.3851 -13.4987 -32.9555 30.6648 -13.7361 -32.6431 29.715 -13.6534 -32.4422 
28.8073 -13.5308 -32.4356 28.2087 -13.7742 -32.3319 35.9557 -13.0057 -34.3568 
34.9918 -13.3711 -33.4377 35.1109 -13.0274 -33.9704 34.1723 -13.5297 -33.4319 
33.1193 -13.5236 -33.4992 31.94 -13.6352 -33.4569 35.8032 -12.8725 -35.1327 
35.1548 -12.8932 -34.809 34.7779 -14.0728 -23.9807 35.1014 -14.6409 -23.48 
35.4901 -14.7095 -24.0664 33.7883 -13.9638 -23.9992 34.3233 -14.4597 -23.4603 
32.7066 -13.9804 -24.169 33.2801 -14.4555 -23.4808 31.7649 -14.2076 -24.2677 
32.1131 -14.6785 -23.4876 31.4312 -14.6605 -23.915 20.9269 -13.9881 -24.1288 
20.9158 -14.4954 -23.5523 21.5153 -14.5037 -23.9504 19.8521 -14.065 -24.1481 
20.282 -14.5111 -23.5429 19.6174 -14.786 -23.7936 35.9628 -14.3027 -24.5569 
36.3225 -14.1939 -25.0319 31.8625 -13.8216 -25.0707 30.9482 -14.6833 -24.3758 
31.1202 -14.2132 -25.0712 30.5169 -14.6685 -25.0041 21.8598 -14.1486 -24.7985 
22.0499 -14.5143 -24.4907 22.4391 -14.5708 -25.2091 19.2937 -14.4703 -24.8893 
18.8576 -13.9023 -25.1627 36.113 -14.3931 -25.5547 35.9874 -13.9805 -26.1286 
35.6532 -14.6628 -26.0252 31.1189 -14.0442 -26.1132 30.5121 -14.5552 -25.791 
22.174 -14.0007 -26.0079 22.6493 -14.4791 -25.9628 18.8721 -13.9668 -25.7362 
19.4345 -14.542 -25.9636 35.5305 -14.5756 -27.0005 31.0011 -13.9811 -26.947 
30.5119 -14.4543 -26.8339 24.8583 -14.0073 -27.259 25.2027 -14.8384 -26.7404 
25.5536 -14.4755 -27.1462 23.9151 -13.8569 -26.9905 24.1557 -14.5846 -26.5078 
23.0242 -14.336 -26.3529 21.97 -13.8826 -27.037 20.4624 -14.2432 -27.0253 
[...]
CELL_DATA 6532
SCALARS scalars float
LOOKUP_TABLE default
2016 2016 2016 2016 2016 2016 2016 2016 2016 
2016 2016 2016 2016 2016 2016 2016 2016 2016 
2016 2016 2016 2016 2016 2016 2016 2016 2016 
2016 2016 2016 2016 2016 2016 2016 2016 2016 
2016 2016 2016 2016 2016 2016 2016 2016 2016 
2016 2016 2016 2016 2016 2016 2016 2016 2016 
2016 2016 2016 2016 2016 2016 2016 2016 2016 
2016 2016 2016 2016 2016 2016 2016 2016 2016 
2016 2016 2016 2016 2016 2016 2016 2016 2016 
2016 2016 2016 2016 2016 2016 2016 2016 2016 
2016 2016 2016 2016 2016 2016 2016 2016 2016 
2016 2016 2016 2016 2016 2016 2016 2016 2016 
2016 2016 2016 2016 2016 2016 2016 2016 2016 
2016 2016 2016 2016 2016 2016 2016 2016 2016 
2016 2016 2016 2016 2016 2016 2016 2016 2016 
2016 2016 2016 2016 2016 2016 2016 2016 2016 
2016 2016 2016 2016 2016 2016 2016 2016 2016 
2016 2016 2016 2016 2016 2016 2016 2016 2016 
2016 2016 2016 2016 2016 2016 2016 2016 2016 
2016 2016 2016 2016 2016 2016 2016 2016 2016 
2016 2016 2016 2016 2016 2016 2016 2016 2016 
2016 2016 2016 2016 2016 2016 2016 2016 2016 
2016 2016 2016 2016 2016 2016 2016 2016 2016 
2016 2016 2016 2016 2016 2016 2016 2016 2016 
2016 2016 2016 2016 2016 2016 2016 2016 2016 
2016 2016 2016 2016 2016 2016 2016 2016 2016 
2016 2016 2016 2016 2016 2016 2016 2016 2016 
2016 2016 2016 2016 2016 2016 2016 2016 2016 
2016 2016 2016 2016 2016 2016 2016 2016 2016 
2016 2016 2016 2016 2016 2016 2016 2016 2016 
2016 2016 2016 2016 2016 2016 2016 2016 2016 
2016 2016 2016 2016 2016 2016 2016 2016 2016 
2016 2016 2016 2016 2016 2016 2016 2016 2016 
2016 2016 2016 2016 2016 2016 2016 2016 2016 
2016 2016 2016 2016 2016 2016 2016 2016 2016 
2016 2016 2016 2016 2016 2016 2016 2016 2016 
2016 2016 2016 2016 2016 2016 2016 2016 2016 
2016 2016 2016 2016 2016 2016 2016 2016 2016 
2016 2016 2016 2016 2016 2016 2016 2016 2016 
2016 2016 2016 2016 2016 2016 2016 2016 2016 
2016 2016 2016 2016 2016 2016 2016 2016 2016 
2016 2016 2016 2016 2016 2016 2016 2016 2016 
2016 2016 2016 2016 2016 2016 2016 2016 2016 
2016 2016 2016 2016 2016 2016 2016 2016 2016 
2016 2016 2016 2016 2016 2016 2016 2016 2016 
2016 2016 2016 2016 2016 2016 2016 2016 2016 
2016 2016 2016 2016 2016 2016 2016 2016 2016 
2016 2016 2016 2016 2016 2016 2016 2016 2016 
2016 2016 2016 2016 2016 2016 2016 2016 2016 
2016 2016 2016 2016 2016 2016 2016 2016 2016 
2016 2016 2016 2016 2016 2016 2016 2016 2016 
2016 2016 2016 2016 2016 2016 2016 2016 2016 
2016 2016 2016 2016 2016 2016 2016 2016 2016 
2016 2016 2016 2016 2016 2016 2016 2016 2016 
2016 2016 2016 2016 2016 2016 2016 2016 2016 
2016 2016 2016 2016 2016 2016 2016 2016 2016 
2016 2016 2016 2016 2016 2016 2016 2016 2016 
2016 2016 2016 2016 2016 2016 2016 2016 2016 
2016 2016 2016 2016 2016 2016 2016 2016 2016 
2016 2016 2016 2016 2016 2016 2016 2016 2016 
2016 2016 2016 2016 2016 2016 2016 2016 2016 
2016 2016 2016 2016 2016 2016 2016 2016 2016 
2016 2016 2016 2016 2016 2016 2016 2016 2016 
2016 2016 2016 2016 2016 2016 2016 2016 2016 
2016 2016 2016 2016 2016 2016 2016 2016 2016 
2016 2016 2016 2016 2016 2016 2016 2016 2016 
2016 2016 2016 2016 2016 2016 2016 2016 2016 
2016 2016 2016 2016 2016 2016 2016 2016 2016 
2016 2016 2016 2016 2016 2016 2016 2016 2016 
2016 2016 2016 2016 2016 2016 2016 2016 2016 
2016 2016 2016 2016 2016 2016 2016 2016 2016 
2016 2016 2016 2016 2016 2016 2016 2016 2016 
2016 2016 2016 2016 2016 2016 2016 2016 2016 
2016 2016 2016 2016 2016 2016 2016 2016 2016 
2016 2016 2016 2016 2016 2016 2016 2016 2016 
2016 2016 2016 2016 2016 2016 2016 2016 2016 
2016 2016 2016 2016 2016 2016 2016 2016 2016 
2016 2016 2016 2016 2016 2016 2016 2016 2016 
2016 2016 2016 2016 2016 2016 2016 2016 2016 
2016 2016 2016 2016 2016 2016 2016 2016 2016 
2016 2016 2016 2016 2016 2016 2016 2016 2016 
2016 2016 2016 2016 2016 2016 2016 2016 2016 
2016 2016 2016 2016 2016 2016 2016 2016 2016 
2016 2016 2016 2016 2016 2016 2016 2016 2016 
2016 2016 2016 2016 2016 2016 2016 2016 2016 
2016 2016 2016 2016 2016 2016 2016 2016 2016 
2016 2016 2016 2016 2016 2016 2016 2016 2016 
2016 2016 2016 2016 2016 2016 2016 2016 2016 
2016 2016 2016 2016 2016 2016 2016 2016 2016 
2016 2016 2016 2016 2016 2016 2016 2016 2016 
2016 2016 2016 2016 2016 2016 2016 2016 2016 
2016 2016 2016 2016 2016 2016 2016 2016 2016 
2016 2016 2016 2016 2016 2016 2016 2016 2016 
2016 2016 2016 2016 2016 2016 2016 2016 2016 
2016 2016 2016 2016 2016 2016 2016 2016 2016 
2016 2016 2016 2016 2016 2016 2016 2016 2016 
2016 2016 2016 2016 2016 2016 2016 2016 2016 
2016 2016 2016 2016 2016 2016 2016 2016 2016 
2016 2016 2016 2016 2016 2016 2016 2016 2016 
2016 2016 2016 2016 2016 2016 2016 2016 2016 
2016 2016 2016 2016 2016 2016 2016 2016 2016 
2016 2016 2016 2016 2016 2016 2016 2016 2016 
2016 2016 2016 2016 2016 2016 2016 2016 2016 
2016 2016 2016 2016 2016 2016 2016 2016 2016 
2016 2016 2016 2016 2016 2016 2016 2016 2016 
2016 2016 2016 2016 2016 2016 2016 2016 2016 
2016 2016 2016 2016 2016 2016 2016 2016 2016 
2016 2016 2016 2016 2016 2016 2016 2016 2016 
2016 2016 2016 2016 2016 2016 2016 2016 2016 
2016 2016 2016 2016 2016 2016 2016 2016 2016 
2016 2016 2016 2016 2016 2016 2016 2016 2016 
2016 2016 2016 2016 2016 2016 2016 2016 2016 
2016 2016 2016 2016 2016 2016 2016 2016 2016 
2016 2016 2016 2016 2016 2016 2016 2016 2016 
2016 2016 2016 2016 2016 2016 2016 2016 2016 
2016 2016 2016 2016 2016 2016 2016 2016 2016 
2016 2016 2016 2016 2016 2016 2016 2016 2016 
2016 2016 2016 2016 2016 2016 2016 2016 2016 
2016 2016 2016 2016 2016 2016 2016 2016 2016 
2016 2016 2016 2016 2016 2016 2016 2016 2016 
2016 2016 2016 2016 2016 2016 2016 2016 2016 
2016 2016 2016 2016 2016 2016 2016 2016 2016 
2016 2016 2016 2016 2016 2016 2016 2016 2016 
2016 2016 2016 2016 2016 2016 2016 2016 2016 
2016 2016 2016 2016 2016 2016 2016 2016 2016 
2016 2016 2016 2016 2016 2016 2016 2016 2016 
2016 2016 2016 2016 2016 2016 2016 2016 2016 
2016 2016 2016 2016 2016 2016 2016 2016 2016 
2016 2016 2016 2016 2016 2016 2016 2016 2016 
2016 2016 2016 2016 2016 2016 2016 2016 2016 
2016 2016 2016 2016 2016 2016 2016 2016 2016 
2016 2016 2016 2016 2016 2016 2016 2016 2016 
2016 2016 2016 2016 2016 2016 2016 2016 2016 
2016 2016 2016 2016 2016 2016 2016 2016 2016 
2016 2016 2016 2016 2016 2016 2016 2016 2016 
2016 2016 2016 2016 2016 2016 2016 2016 2016 
2016 2016 2016 2016 2016 2016 2016 2016 2016 
2016 2016 2016 2016 2016 2016 2016 2016 2016 
2016 2016 2016 2016 2016 2016 2016 2016 2016 
2016 2016 2016 2016 2016 2016 2016 2016 2016 
2016 2016 2016 2016 2016 2016 2016 2016 2016 
2016 2016 2016 2016 2016 2016 2016 2016 2016 
2016 2016 2016 2016 2016 2016 2016 2016 2016 
2016 2016 2016 2016 2016 2016 2016 2016 2016 
2016 2016 2016 2016 2016 2016 2016 2016 2016 
2016 2016 2016 2016 2016 2016 2016 2016 2016 
2016 2016 2016 2016 2016 2016 2016 2016 2016 
2016 2016 2016 2016 2016 2016 2016 2016 2016 
2016 2016 2016 2016 2016 2016 2016 2016 2016 
2016 2016 2016 2016 2016 2016 2016 2016 2016 
2016 2016 2016 2016 2016 2016 2016 2016 2016 
2016 2016 2016 2016 2016 2016 2016 2016 2016 
2016 2016 2016 2016 2016 2016 2016 2016 2016 
2016 2016 2016 2016 2016 2016 2016 2016 2016 
2016 2016 2016 2016 2016 2016 2016 2016 2016 
2016 2016 2016 2016 2016 2016 2016 2016 2016 
2016 2016 2016 2016 2016 2016 2016 2016 2016 
2016 2016 2016 2016 2016 2016 2016 2016 2016 
2016 2016 2016 2016 2016 2016 2016 2016 2016 
2016 2016 2016 2016 2016 2016 2016 2016 2016 
2016 2016 2016 2016 2016 2016 2016 2016 2016 
2016 2016 2016 2016 2016 2016 2016 2016 2016 
2016 2016 2016 2016 2016 2016 2016 2016 2016 
2016 2016 2016 2016 2016 2016 2016 2016 2016 
2016 2016 2016 2016 2016 2016 2016 2016 2016 
2016 2016 2016 2016 2016 2016 2016 2016 2016 
2016 2016 2016 2016 2016 2016 2016 2016 2016 
2016 2016 2016 2016 2016 2016 2016 2016 2016 
2016 2016 2016 2016 2016 2016 2016 2016 2016 
2016 2016 2016 2016 2016 2016 2016 2016 2016 
2016 2016 2016 2016 2016 2016 2016 2016 2016 
2016 2016 2016 2016 2016 2016 2016 2016 2016 
2016 2016 2016 2016 2016 2016 2016 2016 2016 
2016 2016 2016 2016 2016 2016 2016 2016 2016 
2016 2016 2016 2016 2016 2016 2016 2016 2016 
2016 2016 2016 2016 2016 2016 2016 2016 2016 
2016 2016 2016 2016 2016 2016 2016 2016 2016 
2016 2016 2016 2016 2016 2016 2016 2016 2016 
2016 2016 2016 2016 2016 2016 2016 2016 2016 
2016 2016 2016 2016 2016 2016 2016 2016 2016 
2016 2016 2016 2016 2016 2016 2016 2016 2016 
2016 2016 2016 2016 2016 2016 2016 2016 2016 
2016 2016 2016 2016 2016 2016 2016 2016 2016 
2016 2016 2016 2016 2016 2016 2016 2016 2016 
2016 2016 2016 2016 2016 2016 2016 2016 2016 
2016 2016 2016 2016 2016 2016 2016 2016 2016 
2016 2016 2016 2016 2016 2016 2016 2016 2016 
2016 2016 2016 2016 2016 2016 2016 2016 2016 
2016 2016 2016 2016 2016 2016 2016 2016 2016 
2016 2016 2016 2016 2016 2016 2016 2016 2016 
2016 2016 2016 2016 2016 2016 2016 2016 2016 
2016 2016 2016 2016 2016 2016 2016 2016 2016 
2016 2016 2016 2016 2016 2016 2016 2016 2016 
2016 2016 2016 2016 2016 2016 2016 2016 2016 
2016 2016 2016 2016 2016 2016 2016 2016 2016 
2016 2016 2016 2016 2016 2016 2016 2016 2016 
2016 2016 2016 2016 2016 2016 2016 2016 2016 
2016 2016 2016 2016 2016 2016 2016 2016 2016 
2016 2016 2016 2016 2016 2016 2016 2016 2016 
2016 2016 2016 2016 2016 2016 2016 2016 2016 
2016 2016 2016 2016 2016 2016 2016 2016 2016 
2016 2016 2016 2016 2016 2016 2016 2016 2016 
2016 2016 2016 2016 2016 2016 2016 2016 2016 
2016 2016 2016 2016 2016 2016 2016 2016 2016 
2016 2016 2016 2016 2016 2016 2016 2016 2016 
2016 2016 2016 2016 2016 2016 2016 2016 2016 
2016 2016 2016 2016 2016 2016 2016 2016 2016 
2016 2016 2016 2016 2016 2016 2016 2016 2016 
2016 2016 2016 2016 2016 2016 2016 2016 2016 
2016 2016 2016 2016 2016 2016 2016 2016 2016 
2016 2016 2016 2016 2016 2016 2016 2016 2016 
2016 2016 2016 2016 2016 2016 2016 2016 2016 
2016 2016 2016 2016 2016 2016 2016 2016 2016 
2016 2016 2016 2016 2016 2016 2016 2016 2016 
2016 2016 2016 2016 2016 2016 2016 2016 2016 
2016 2016 2016 2016 2016 2016 2016 2016 2016 
2016 2016 2016 2016 2016 2016 2016 2016 2016 
2016 2016 2016 2016 2016 2016 2016 2016 2016 
2016 2016 2016 2016 2016 2016 2016 2016 2016 
2016 2016 2016 2016 2016 2016 2016 2016 2016 
2016 2016 2016 2016 2016 2016 2016 2016 2016 
2016 2016 2016 2016 2016 2016 2016 2016 2016 
2016 2016 2016 2016 2016 2016 2016 2016 2016 
2016 2016 2016 2016 2016 2016 2016 2016 2016 
2016 2016 2016 2016 2016 2016 2016 2016 2016 
2016 2016 2016 2016 2016 2016 2016 2016 2016 
2016 2016 2016 2016 2016 2016 2016 2016 2016 
2016 2016 2016 2016 2016 2016 2016 2016 2016 
2016 2016 2016 2016 2016 2016 2016 2016 2016 
2016 2016 2016 2016 2016 2016 2016 2016 2016 
2016 2016 2016 2016 2016 2016 2016 2016 2016 
2016 2016 2016 2016 2016 2016 2016 2016 2016 
2016 2016 2016 2016 2016 2016 2016 2016 2016 
2016 2016 2016 2016 2016 2016 2016 2016 2016 
2016 2016 2016 2016 2016 2016 2016 2016 2016 
2016 2016 2016 2016 2016 2016 2016 2016 2016 
2016 2016 2016 2016 2016 2016 2016 2016 2016 
2016 2016 2016 2016 2016 2016 2016 2016 2016 
2016 2016 2016 2016 2016 2016 2016 2016 2016 
2016 2016 2016 2016 2016 2016 2016 2016 2016 
2016 2016 2016 2016 2016 2016 2016 2016 2016 
2016 2016 2016 2016 2016 2016 2016 2016 2016 
2016 2016 2016 2016 2016 2016 2016 2016 2016 
2016 2016 2016 2016 2016 2016 2016 2016 2016 
2016 2016 2016 2016 2016 2016 2016 2016 2016 
2016 2016 2016 2016 2016 2016 2016 2016 2016 
2016 2016 2016 2016 2016 2016 2016 2016 2016 
2016 2016 2016 2016 2016 2016 2016 2016 2016 
2016 2016 2016 2016 2016 2016 2016 2016 2016 
2016 2016 2016 2016 2016 2016 2016 2016 2016 
2016 2016 2016 2016 2016 2016 2016 2016 2016 
2016 2016 2016 2016 2016 2016 2016 2016 2016 
2016 2016 2016 2016 2016 2016 2016 2016 2016 
2016 2016 2016 2016 2016 2016 2016 2016 2016 
2016 2016 2016 2016 2016 2016 2016 2016 2016 
2016 2016 2016 2016 2016 2016 2016 2016 2016 
2016 2016 2016 2016 2016 2016 2016 2016 2016 
2016 2016 2016 2016 2016 2016 2016 2016 2016 
2016 2016 2016 2016 2016 2016 2016 2016 2016 
2016 2016 2016 2016 2016 2016 2016 2016 2016 
2016 2016 2016 2016 2016 2016 2016 2016 2016 
2016 2016 2016 2016 2016 2016 2016 2016 2016 
2016 2016 2016 2016 2016 2016 2016 2016 2016 
2016 2016 2016 2016 2016 2016 2016 2016 2016 
2016 2016 2016 2016 2016 2016 2016 2016 2016 
2016 2016 2016 2016 2016 2016 2016 2016 2016 
2016 2016 2016 2016 2016 2016 2016 2016 2016 
2016 2016 2016 2016 2016 2016 2016 2016 2016 
2016 2016 2016 2016 2016 2016 2016 2016 2016 
2016 2016 2016 2016 2016 2016 2016 2016 2016 
2016 2016 2016 2016 2016 2016 2016 2016 2016 
2016 2016 2016 2016 2016 2016 2016 2016 2016 
2016 2016 2016 2016 2016 2016 2016 2016 2016 
2016 2016 2016 2016 2016 2016 2016 2016 2016 
2016 2016 2016 2016 2016 2016 2016 2016 2016 
2016 2016 2016 2016 2016 2016 2016 2016 2016 
2016 2016 2016 2016 2016 2016 2016 2016 2016 
2016 2016 2016 2016 2016 2016 2016 2016 2016 
2016 2016 2016 2016 2016 2016 2016 2016 2016 
2016 2016 2016 2016 2016 2016 2016 2016 2016 
2016 2016 2016 2016 2016 2016 2016 2016 2016 
2016 2016 2016 2016 2016 2016 2016 2016 2016 
2016 2016 2016 2016 2016 2016 2016 2016 2016 
2016 2016 2016 2016 2016 2016 2016 2016 2016 
2016 2016 2016 2016 2016 2016 2016 2016 2016 
2016 2016 2016 2016 2016 2016 2016 2016 2016 
2016 2016 2016 2016 2016 2016 2016 2016 2016 
2016 2016 2016 2016 2016 2016 2016 2016 2016 
2016 2016 2016 2016 2016 2016 2016 2016 2016 
2016 2016 2016 2016 2016 2016 2016 2016 2016 
2016 2016 2016 2016 2016 2016 2016 2016 2016 
2016 2016 2016 2016 2016 2016 2016 2016 2016 
2016 2016 2016 2016 2016 2016 2016 2016 2016 
2016 2016 2016 2016 2016 2016 2016 2016 2016 
2016 2016 2016 2016 2016 2016 2016 2016 2016 
2016 2016 2016 2016 2016 2016 2016 2016 2016 
2016 2016 2016 2016 2016 2016 2016 2016 2016 
2016 2016 2016 2016 2016 2016 2016 2016 2016 
2016 2016 2016 2016 2016 2016 2016 2016 2016 
2016 2016 2016 2016 2016 2016 2016 2016 2016 
2016 2016 2016 2016 2016 2016 2016 2016 2016 
2016 2016 2016 2016 2016 2016 2016 2016 2016 
2016 2016 2016 2016 2016 2016 2016 2016 2016 
2016 2016 2016 2016 2016 2016 2016 2016 2016 
2016 2016 2016 2016 2016 2016 2016 2016 2016 
2016 2016 2016 2016 2016 2016 2016 2016 2016 
2016 2016 2016 2016 2016 2016 2016 2016 2016 
2016 2016 2016 2016 2016 2016 2016 2016 2016 
2016 2016 2016 2016 2016 2016 2016 2016 2016 
2016 2016 2016 2016 2016 2016 2016 2016 2016 
2016 2016 2016 2016 2016 2016 2016 2016 2016 
2016 2016 2016 2016 2016 2016 2016 2016 2016 
2016 2016 2016 2016 2016 2016 2016 2016 2016 
2016 2016 2016 2016 2016 2016 2016 2016 2016 
2016 2016 2016 2016 2016 2016 2016 2016 2016 
2016 2016 2016 2016 2016 2016 2016 2016 2016 
2016 2016 2016 2016 2016 2016 2016 2016 2016 
2016 2016 2016 2016 2016 2016 2016 2016 2016 
2016 2016 2016 2016 2016 2016 2016 2016 2016 
2016 2016 2016 2016 2016 2016 2016 2016 2016 
2016 2016 2016 2016 2016 2016 2016 2016 2016 
2016 2016 2016 2016 2016 2016 2016 2016 2016 
2016 2016 2016 2016 2016 2016 2016 2016 2016 
2016 2016 2016 2016 2016 2016 2016 2016 2016 
2016 2016 2016 2016 2016 2016 2016 2016 2016 
2016 2016 2016 2016 2016 2016 2016 2016 2016 
2016 2016 2016 2016 2016 2016 2016 2016 2016 
2016 2016 2016 2016 2016 2016 2016 2016 2016 
2016 2016 2016 2016 2016 2016 2016 2016 2016 
2016 2016 2016 2016 2016 2016 2016 2016 2016 
2016 2016 2016 2016 2016 2016 2016 2016 2016 
2016 2016 2016 2016 2016 2016 2016 2016 2016 
2016 2016 2016 2016 2016 2016 2016 2016 2016 
2016 2016 2016 2016 2016 2016 2016 2016 2016 
2016 2016 2016 2016 2016 2016 2016 2016 2016 
2016 2016 2016 2016 2016 2016 2016 2016 2016 
2016 2016 2016 2016 2016 2016 2016 2016 2016 
2016 2016 2016 2016 2016 2016 2016 2016 2016 
2016 2016 2016 2016 2016 2016 2016 2016 2016 
2016 2016 2016 2016 2016 2016 2016 2016 2016 
2016 2016 2016 2016 2016 2016 2016 2016 2016 
2016 2016 2016 2016 2016 2016 2016 2016 2016 
2016 2016 2016 2016 2016 2016 2016 2016 2016 
2016 2016 2016 2016 2016 2016 2016 2016 2016 
2016 2016 2016 2016 2016 2016 2016 2016 2016 
2016 2016 2016 2016 2016 2016 2016 2016 2016 
2016 2016 2016 2016 2016 2016 2016 2016 2016 
2016 2016 2016 2016 2016 2016 2016 2016 2016 
2016 2016 2016 2016 2016 2016 2016 2016 2016 
2016 2016 2016 2016 2016 2016 2016 2016 2016 
2016 2016 2016 2016 2016 2016 2016 2016 2016 
2016 2016 2016 2016 2016 2016 2016 2016 2016 
2016 2016 2016 2016 2016 2016 2016 2016 2016 
2016 2016 2016 2016 2016 2016 2016 2016 2016 
2016 2016 2016 2016 2016 2016 2016 2016 2016 
2016 2016 2016 2016 2016 2016 2016 2016 2016 
2016 2016 2016 2016 2016 2016 2016 2016 2016 
2016 2016 2016 2016 2016 2016 2016 2016 2016 
2016 2016 2016 2016 2016 2016 2016 2016 2016 
2016 2016 2016 2016 2016 2016 2016 2016 2016 
2016 2016 2016 2016 2016 2016 2016 2016 2016 
2016 2016 2016 2016 2016 2016 2016 2016 2016 
2016 2016 2016 2016 2016 2016 2016 2016 2016 
2016 2016 2016 2016 2016 2016 2016 2016 2016 
2016 2016 2016 2016 2016 2016 2016 2016 2016 
2016 2016 2016 2016 2016 2016 2016 2016 2016 
2016 2016 2016 2016 2016 2016 2016 2016 2016 
2016 2016 2016 2016 2016 2016 2016 2016 2016 
2016 2016 2016 2016 2016 2016 2016 2016 2016 
2016 2016 2016 2016 2016 2016 2016 2016 2016 
2016 2016 2016 2016 2016 2016 2016 2016 2016 
2016 2016 2016 2016 2016 2016 2016 2016 2016 
2016 2016 2016 2016 2016 2016 2016 2016 2016 
2016 2016 2016 2016 2016 2016 2016 2016 2016 
2016 2016 2016 2016 2016 2016 2016 2016 2016 
2016 2016 2016 2016 2016 2016 2016 2016 2016 
2016 2016 2016 2016 2016 2016 2016 2016 2016 
2016 2016 2016 2016 2016 2016 2016 2016 2016 
2016 2016 2016 2016 2016 2016 2016 2016 2016 
2016 2016 2016 2016 2016 2016 2016 2016 2016 
2016 2016 2016 2016 2016 2016 2016 2016 2016 
2016 2016 2016 2016 2016 2016 2016 2016 2016 
2016 2016 2016 2016 2016 2016 2016 2016 2016 
2016 2016 2016 2016 2016 2016 2016 2016 2016 
2016 2016 2016 2016 2016 2016 2016 2016 2016 
2016 2016 2016 2016 2016 2016 2016 2016 2016 
2016 2016 2016 2016 2016 2016 2016 2016 2016 
2016 2016 2016 2016 2016 2016 2016 2016 2016 
2016 2016 2016 2016 2016 2016 2016 2016 2016 
2016 2016 2016 2016 2016 2016 2016 2016 2016 
2016 2016 2016 2016 2016 2016 2016 2016 2016 
2016 2016 2016 2016 2016 2016 2016 2016 2016 
2016 2016 2016 2016 2016 2016 2016 2016 2016 
2016 2016 2016 2016 2016 2016 2016 2016 2016 
2016 2016 2016 2016 2016 2016 2016 2016 2016 
2016 2016 2016 2016 2016 2016 2016 2016 2016 
2016 2016 2016 2016 2016 2016 2016 2016 2016 
2016 2016 2016 2016 2016 2016 2016 2016 2016 
2016 2016 2016 2016 2016 2016 2016 2016 2016 
2016 2016 2016 2016 2016 2016 2016 2016 2016 
2016 2016 2016 2016 2016 2016 2016 2016 2016 
2016 2016 2016 2016 2016 2016 2016 2016 2016 
2016 2016 2016 2016 2016 2016 2016 2016 2016 
2016 2016 2016 2016 2016 2016 2016 2016 2016 
2016 2016 2016 2016 2016 2016 2016 2016 2016 
2016 2016 2016 2016 2016 2016 2016 2016 2016 
2016 2016 2016 2016 2016 2016 2016 2016 2016 
2016 2016 2016 2016 2016 2016 2016 2016 2016 
2016 2016 2016 2016 2016 2016 2016 2016 2016 
2016 2016 2016 2016 2016 2016 2016 2016 2016 
2016 2016 2016 2016 2016 2016 2016 2016 2016 
2016 2016 2016 2016 2016 2016 2016 2016 2016 
2016 2016 2016 2016 2016 2016 2016 2016 2016 
2016 2016 2016 2016 2016 2016 2016 2016 2016 
2016 2016 2016 2016 2016 2016 2016 2016 2016 
2016 2016 2016 2016 2016 2016 2016 2016 2016 
2016 2016 2016 2016 2016 2016 2016 2016 2016 
2016 2016 2016 2016 2016 2016 2016 2016 2016 
2016 2016 2016 2016 2016 2016 2016 2016 2016 
2016 2016 2016 2016 2016 2016 2016 2016 2016 
2016 2016 2016 2016 2016 2016 2016 2016 2016 
2016 2016 2016 2016 2016 2016 2016 2016 2016 
2016 2016 2016 2016 2016 2016 2016 2016 2016 
2016 2016 2016 2016 2016 2016 2016 2016 2016 
2016 2016 2016 2016 2016 2016 2016 2016 2016 
2016 2016 2016 2016 2016 2016 2016 2016 2016 
2016 2016 2016 2016 2016 2016 2016 2016 2016 
2016 2016 2016 2016 2016 2016 2016 2016 2016 
2016 2016 2016 2016 2016 2016 2016 2016 2016 
2016 2016 2016 2016 2016 2016 2016 2016 2016 
2016 2016 2016 2016 2016 2016 2016 2016 2016 
2016 2016 2016 2016 2016 2016 2016 2016 2016 
2016 2016 2016 2016 2016 2016 2016 2016 2016 