# vtk DataFile Version 4.0
vtk output
ASCII
DATASET POLYDATA
POINTS 6646 float
5.75953 -11.2469 43.7119 6.03931 -11.5059 44.2591 6.39801 -11.5434 43.823 
5.64069 -11.5403 44.1748 3.89664 -11.1383 43.8356 3.89458 -11.6473 44.3451 
4.55643 -11.3503 43.8458 3.21415 -11.1964 43.7473 3.03827 -11.5594 44.3031 
2.44445 -11.7524 43.8822 9.0656 -11.4061 43.0314 9.11953 -11.6762 43.1977 
9.25548 -11.5482 42.9894 8.69946 -11.7165 43.2115 5.98654 -11.084 42.8196 
6.6663 -11.3862 42.9272 5.18468 -11.3648 43.7539 4.9374 -11.0593 43.253 
4.08112 -11.1023 42.9705 3.35327 -11.5991 42.9739 2.87938 -11.5786 43.4523 
9.08634 -11.6917 42.7023 7.90416 -11.4869 42.3128 8.3883 -11.5295 41.7679 
7.68622 -11.1889 41.8385 6.82671 -11.0933 42.1239 7.32797 -11.4663 42.5529 
6.22617 -11.0674 41.7197 5.15407 -11.1121 42.1934 4.39101 -11.3681 42.1295 
3.8624 -11.588 42.3928 8.01943 -11.2204 41.1579 8.38853 -11.566 40.8524 
7.20014 -11.1378 41.1735 6.48474 -11.3613 41.0544 5.69405 -11.4436 41.3476 
4.88564 -11.5319 41.6058 10.0153 -11.3241 39.9341 10.18 -11.4722 40.1782 
10.4355 -11.5679 39.8515 9.74626 -11.5023 40.0854 7.71681 -11.6442 40.4766 
6.83494 -11.7346 40.6188 9.88981 -11.7725 39.6578 5.90665 -12.0064 44.7585 
5.74768 -12.7979 45.2838 6.4566 -12.4469 44.916 4.8524 -12.1766 45.0102 
5.02164 -12.6783 45.4044 4.0354 -12.1569 44.8062 4.10289 -12.6736 45.3051 
3.40684 -12.6786 45.078 7.93199 -12.1906 43.8417 7.79905 -12.6321 44.2417 
8.31082 -12.5535 44.0163 6.91014 -12.0866 44.2949 7.09216 -12.5316 44.5231 
4.91152 -11.7457 44.3463 3.14984 -12.2104 44.702 1.94472 -12.1511 43.9781 
2.26959 -12.2575 44.4488 1.602 -12.7906 44.0014 8.77382 -12.3092 43.5284 
9.41805 -12.1264 42.9005 8.15129 -11.7487 42.7672 7.17565 -11.7989 43.3673 
2.95417 -11.9157 43.0422 2.45141 -12.4421 42.978 1.92409 -12.4609 43.47 
9.81037 -12.0973 41.898 10.0401 -12.8311 42.4523 10.6168 -12.4684 41.8338 
8.93653 -11.831 42.0703 4.15146 -11.9076 41.6123 3.45701 -12.353 41.9711 
2.98217 -12.4506 42.505 10.8937 -12.1655 41.0021 11.1636 -12.5542 41.4018 
11.5935 -12.4135 40.797 9.94946 -11.8217 40.6669 9.0219 -11.8543 41.0513 
6.08708 -11.8124 40.8495 5.09277 -11.9932 41.0239 4.22257 -12.2543 40.954 
3.71204 -12.4837 41.1895 13.8657 -12.2471 40.0141 14.1347 -12.4851 40.2877 
14.3589 -12.41 39.9682 13.0809 -12.2151 39.921 13.3162 -12.4476 40.4328 
11.9879 -12.193 40.0891 12.3499 -12.4444 40.5032 10.9619 -11.9211 40.0979 
9.23363 -11.8671 40.0759 8.36613 -12.0326 40.0887 7.59867 -12.3224 39.9608 
6.95722 -12.3627 40.1938 5.86206 -12.5571 40.4342 4.6866 -12.6601 40.5841 
3.94627 -12.7529 40.7168 15.8485 -12.1697 38.9917 16.0752 -12.5748 39.5492 
16.3654 -12.5552 38.9188 15.3176 -12.204 38.7211 15.4217 -12.4464 39.4637 
13.9032 -12.6031 39.6725 14.7625 -12.7446 38.911 12.8096 -12.576 39.5425 
11.7943 -12.565 39.5577 10.7628 -12.3768 39.534 9.86511 -12.6134 39.4016 
8.90922 -12.4929 39.5212 7.81217 -12.7668 39.6085 15.802 -12.0872 37.974 
16.4734 -12.5414 37.9191 15.2161 -12.2953 38.1081 14.9715 -12.4437 38.4696 
16.0601 -12.1219 37.0834 16.3708 -12.7256 37.0052 15.126 -12.3025 37.4943 
15.3618 -12.1697 36.9256 14.658 -12.6945 37.0607 15.7034 -12.5391 36.5236 
14.9846 -12.6809 36.5548 1.83125 -13.2064 45.6348 2.00555 -13.5104 46.2962 
2.49707 -13.5007 46.0192 1.54542 -13.5223 46.1456 6.01834 -12.9449 44.6991 
5.37579 -13.3485 45.0963 4.87771 -13.511 45.4309 4.22321 -13.2668 45.5962 
2.6174 -12.9071 45.1674 3.35483 -13.338 45.5968 1.72432 -12.9096 44.8043 
1.11123 -13.3838 45.5704 1.16329 -13.2116 45.0807 0.671164 -13.7293 45.2668 
8.11215 -12.8377 43.7016 7.04789 -12.8651 44.1503 6.18295 -13.0977 43.7788 
5.13339 -13.4064 44.5844 5.27486 -13.2704 44.0326 4.70864 -13.7645 44.2653 
1.04402 -13.6159 44.4678 1.32577 -13.479 43.8149 9.00274 -12.8362 43.0635 
8.22503 -13.1516 42.9674 7.20534 -13.1556 43.1996 6.40595 -13.3847 43.0763 
5.59957 -13.618 43.3597 4.88798 -13.7534 43.6945 1.94935 -12.9531 42.95 
1.60581 -13.4295 43.2597 11.9136 -13.1643 41.87 12.0858 -13.8165 42.3313 
12.602 -13.4188 41.8537 11.0916 -12.863 41.9355 10.9286 -13.5071 42.3871 
9.86218 -13.6724 42.5012 8.91678 -13.5194 42.592 7.74737 -13.6435 42.578 
6.79052 -13.7512 42.6381 3.04306 -13.0801 41.7949 2.59696 -13.451 41.9905 
2.02037 -13.6852 42.5333 14.9489 -13.1549 40.8931 14.9047 -13.8022 41.3206 
15.5622 -13.4886 40.9092 13.928 -12.952 40.8738 14.2087 -13.505 41.3604 
12.719 -12.9638 41.1652 13.3508 -13.6274 41.5829 11.7813 -12.7723 41.2431 
3.35289 -13.4182 40.9374 2.90168 -13.6906 41.3394 15.7445 -13.0033 40.225 
16.0797 -13.8153 40.493 16.3916 -13.2742 39.7751 14.7104 -12.8327 39.9269 
7.10433 -12.8464 39.8173 6.3399 -13.1061 39.9381 5.55992 -13.3899 40.0424 
4.89636 -13.3727 40.2493 4.063 -13.4492 40.3789 16.6218 -13.4363 38.9716 
14.0682 -13.6828 39.4366 14.3964 -13.5723 39.0584 13.1136 -13.4533 39.4469 
12.0779 -13.4549 39.4056 11.0697 -13.4709 39.4134 10.0538 -13.4861 39.4131 
9.01996 -13.5045 39.4074 7.96283 -13.5436 39.4326 6.86899 -13.5725 39.5634 
5.77143 -13.8221 39.681 16.6177 -13.4773 37.9518 14.5806 -12.7999 37.9466 
14.1513 -13.3942 38.3897 13.9918 -13.3108 37.9219 13.7851 -13.7796 38.0399 
16.3707 -13.6517 37.1595 14.0601 -13.6125 37.4731 14.5233 -13.2956 36.7772 
15.8916 -13.3732 36.5712 15.1025 -13.408 36.4845 1.83938 -13.9977 46.7505 
1.71142 -14.7765 47.3107 2.41464 -14.4318 46.889 0.904219 -14.2591 46.8442 
1.1541 -14.5738 47.354 0.633667 -14.8041 47.093 3.91821 -14.0568 45.8696 
3.88113 -14.8599 46.2454 4.28221 -14.6186 45.8646 2.90305 -13.9865 46.2996 
2.97244 -14.6985 46.5209 0.970593 -13.8272 46.1004 0.465768 -14.5518 46.1362 
4.88264 -13.7502 44.8792 4.51391 -14.3909 45.1147 0.507028 -14.559 45.0937 
4.53129 -14.6185 43.9431 1.27781 -14.2485 43.7551 0.887164 -14.815 44.4117 
6.10531 -13.8837 42.8484 5.51662 -14.3127 42.9804 4.93917 -14.4136 43.2999 
1.60258 -14.5299 43.015 12.8866 -13.9071 42.0794 12.7889 -14.6705 42.3418 
13.3594 -14.3811 41.9514 11.874 -14.6625 42.5312 11.0152 -14.4979 42.5326 
10.004 -14.4938 42.5202 9.0063 -14.5253 42.4908 7.99245 -14.5124 42.4562 
6.96129 -14.5209 42.4394 5.90387 -14.6279 42.5877 2.31383 -14.3664 41.8886 
1.98383 -14.8139 42.3685 14.8694 -14.7574 41.3782 15.5598 -14.2405 41.0351 
14.034 -14.3907 41.629 2.95216 -14.0321 40.8993 2.64429 -14.5626 41.1144 
16.0707 -14.792 40.55 16.463 -14.2654 39.8878 5.02229 -13.8843 39.8921 
4.27421 -14.0913 39.9223 3.43742 -14.5241 39.9063 2.96178 -14.5087 40.4067 
16.6011 -14.4989 39.0046 14.2032 -14.3209 39.0692 13.7911 -14.7499 39.291 
13.0814 -14.529 39.4825 12.0598 -14.479 39.4606 11.0363 -14.5252 39.4431 
10.0144 -14.5593 39.4588 8.99552 -14.5572 39.4757 7.9802 -14.5628 39.4661 
6.95623 -14.5305 39.4482 6.06915 -14.381 39.4686 4.94071 -14.5311 39.4444 
3.95176 -14.6766 39.4217 16.4577 -14.6162 37.9782 13.9966 -14.1901 38.5612 
13.7053 -14.6011 38.1549 16.1142 -14.4159 37.283 15.8929 -14.0756 36.8429 
15.5774 -14.8344 36.9525 14.4549 -14.1975 36.891 13.921 -14.7907 37.4466 
15.1701 -14.4259 36.6459 2.14269 -14.9727 46.9919 1.51693 -15.3958 47.1699 
0.98856 -15.2401 47.3372 0.559372 -15.4453 46.7145 3.95284 -15.4758 46.3617 
4.49274 -15.435 45.9317 3.27625 -15.5844 46.6185 1.90462 -15.7481 46.698 
0.493729 -15.4379 45.7148 4.59956 -15.3456 44.721 0.625341 -15.3591 44.9435 
4.5584 -15.703 43.7341 1.38908 -15.4125 43.8155 0.916046 -15.5059 44.528 
5.06773 -14.9226 42.8566 4.55808 -15.4581 43.0195 1.75355 -15.3233 42.8969 
12.8973 -15.8235 42.3848 13.524 -15.2218 42.0053 12.0182 -15.5384 42.5461 
10.9981 -15.5195 42.5474 9.9641 -15.5088 42.5135 9.12251 -15.3682 42.4941 
8.01956 -15.673 42.3771 7.12578 -15.357 42.4339 6.05075 -15.5226 42.3194 
5.03175 -15.5159 42.435 2.38055 -15.4265 41.9084 2.10637 -15.6157 42.5632 
14.8905 -15.7845 41.3525 15.5312 -15.239 41.0203 14.1669 -15.5121 41.6392 
2.51678 -15.6633 41.1272 16.0516 -15.8037 40.5347 16.4259 -15.2939 39.8931 
2.96161 -15.0431 39.9083 2.66741 -15.4737 40.2764 16.5449 -15.5527 39.007 
13.926 -14.784 38.8394 13.5666 -15.319 38.8679 13.0361 -15.6306 39.4207 
12.0153 -15.5278 39.5323 10.9844 -15.5733 39.5075 9.97367 -15.6076 39.5066 
8.95959 -15.5853 39.5063 8.10077 -15.423 39.4967 7.08168 -15.5438 39.3686 
5.92073 -15.1677 39.2727 5.04208 -15.161 38.9957 5.5599 -15.6462 38.8729 
4.28268 -15.0909 38.9292 3.5808 -15.3042 39.1089 3.01182 -15.6857 39.5278 
16.3927 -15.8104 37.9444 13.3835 -15.7435 37.9973 4.80488 -15.7708 38.6154 
3.97402 -15.7207 38.6654 15.9974 -15.1734 37.3952 15.4911 -15.4946 36.8274 
14.3386 -15.4545 36.786 13.8389 -15.6251 37.2979 14.9914 -15.4777 36.5327 
4.81611 -16.2277 46.7202 5.00267 -16.634 47.201 5.4622 -16.6256 46.8833 
4.51395 -16.7099 47.1936 2.61456 -16.1251 47.0331 2.81641 -16.6133 47.3295 
3.41378 -16.5504 47.1305 2.01875 -16.1457 47.0071 2.25836 -16.5785 47.254 
1.04899 -15.7518 46.9249 1.75937 -16.4953 46.7561 5.06642 -16.0753 46.1396 
5.4872 -16.4807 45.744 4.08502 -16.152 46.6723 1.46777 -16.4566 45.8355 
0.937441 -15.972 46.1818 4.99066 -15.9568 45.2469 5.45724 -16.6642 44.667 
1.05772 -15.9809 44.9826 1.62045 -16.4922 44.8789 4.9443 -16.0558 44.2832 
5.24934 -16.762 43.746 1.77946 -16.215 44.1406 2.31805 -16.6816 43.8859 
2.07018 -16.7263 44.5301 4.86927 -16.3576 43.5295 4.5864 -16.5563 42.8179 
2.00212 -15.9804 43.2653 2.40568 -16.477 42.9141 12.8581 -16.8509 42.3837 
13.556 -16.2643 42.0175 11.9976 -16.5619 42.5363 11.145 -16.3527 42.5345 
10.0717 -16.5176 42.3788 8.91714 -16.2024 42.2954 8.12128 -16.3208 42.0575 
8.55544 -16.6912 41.8907 7.55622 -16.4085 42.0619 6.8533 -16.1925 42.2286 
5.9992 -16.2177 42.0166 6.53063 -16.6788 41.8879 5.20901 -16.1045 41.9496 
4.57489 -16.3123 42.1864 2.37624 -16.5709 42.0162 14.9031 -16.788 41.3782 
15.5445 -16.2448 41.0153 14.1722 -16.5358 41.6417 7.88351 -16.9003 41.7227 
5.7456 -16.7695 41.6184 4.86387 -16.7303 41.6633 2.34849 -16.3554 40.9376 
16.0656 -16.7937 40.5559 16.412 -16.2902 39.8905 2.40442 -16.6018 39.8688 
16.5225 -16.5509 39.0293 13.3867 -16.163 38.9679 13.1144 -16.817 39.4832 
12.0182 -16.561 39.56 10.9632 -16.5853 39.5468 9.95804 -16.6157 39.5316 
[...]
CELL_DATA 13308
SCALARS scalars float
LOOKUP_TABLE default
2017 2017 2017 2017 2017 2017 2017 2017 2017 
2017 2017 2017 2017 2017 2017 2017 2017 2017 
2017 2017 2017 2017 2017 2017 2017 2017 2017 
2017 2017 2017 2017 2017 2017 2017 2017 2017 
2017 2017 2017 2017 2017 2017 2017 2017 2017 
2017 2017 2017 2017 2017 2017 2017 2017 2017 
2017 2017 2017 2017 2017 2017 2017 2017 2017 
2017 2017 2017 2017 2017 2017 2017 2017 2017 
2017 2017 2017 2017 2017 2017 2017 2017 2017 
2017 2017 2017 2017 2017 2017 2017 2017 2017 
2017 2017 2017 2017 2017 2017 2017 2017 2017 
2017 2017 2017 2017 2017 2017 2017 2017 2017 
2017 2017 2017 2017 2017 2017 2017 2017 2017 
2017 2017 2017 2017 2017 2017 2017 2017 2017 
2017 2017 2017 2017 2017 2017 2017 2017 2017 
2017 2017 2017 2017 2017 2017 2017 2017 2017 
2017 2017 2017 2017 2017 2017 2017 2017 2017 
2017 2017 2017 2017 2017 2017 2017 2017 2017 
2017 2017 2017 2017 2017 2017 2017 2017 2017 
2017 2017 2017 2017 2017 2017 2017 2017 2017 
2017 2017 2017 2017 2017 2017 2017 2017 2017 
2017 2017 2017 2017 2017 2017 2017 2017 2017 
2017 2017 2017 2017 2017 2017 2017 2017 2017 
2017 2017 2017 2017 2017 2017 2017 2017 2017 
2017 2017 2017 2017 2017 2017 2017 2017 2017 
2017 2017 2017 2017 2017 2017 2017 2017 2017 
2017 2017 2017 2017 2017 2017 2017 2017 2017 
2017 2017 2017 2017 2017 2017 2017 2017 2017 
2017 2017 2017 2017 2017 2017 2017 2017 2017 
2017 2017 2017 2017 2017 2017 2017 2017 2017 
2017 2017 2017 2017 2017 2017 2017 2017 2017 
2017 2017 2017 2017 2017 2017 2017 2017 2017 
2017 2017 2017 2017 2017 2017 2017 2017 2017 
2017 2017 2017 2017 2017 2017 2017 2017 2017 
2017 2017 2017 2017 2017 2017 2017 2017 2017 
2017 2017 2017 2017 2017 2017 2017 2017 2017 
2017 2017 2017 2017 2017 2017 2017 2017 2017 
2017 2017 2017 2017 2017 2017 2017 2017 2017 
2017 2017 2017 2017 2017 2017 2017 2017 2017 
2017 2017 2017 2017 2017 2017 2017 2017 2017 
2017 2017 2017 2017 2017 2017 2017 2017 2017 
2017 2017 2017 2017 2017 2017 2017 2017 2017 
2017 2017 2017 2017 2017 2017 2017 2017 2017 
2017 2017 2017 2017 2017 2017 2017 2017 2017 
2017 2017 2017 2017 2017 2017 2017 2017 2017 
2017 2017 2017 2017 2017 2017 2017 2017 2017 
2017 2017 2017 2017 2017 2017 2017 2017 2017 
2017 2017 2017 2017 2017 2017 2017 2017 2017 
2017 2017 2017 2017 2017 2017 2017 2017 2017 
2017 2017 2017 2017 2017 2017 2017 2017 2017 
2017 2017 2017 2017 2017 2017 2017 2017 2017 
2017 2017 2017 2017 2017 2017 2017 2017 2017 
2017 2017 2017 2017 2017 2017 2017 2017 2017 
2017 2017 2017 2017 2017 2017 2017 2017 2017 
2017 2017 2017 2017 2017 2017 2017 2017 2017 
2017 2017 2017 2017 2017 2017 2017 2017 2017 
2017 2017 2017 2017 2017 2017 2017 2017 2017 
2017 2017 2017 2017 2017 2017 2017 2017 2017 
2017 2017 2017 2017 2017 2017 2017 2017 2017 
2017 2017 2017 2017 2017 2017 2017 2017 2017 
2017 2017 2017 2017 2017 2017 2017 2017 2017 
2017 2017 2017 2017 2017 2017 2017 2017 2017 
2017 2017 2017 2017 2017 2017 2017 2017 2017 
2017 2017 2017 2017 2017 2017 2017 2017 2017 
2017 2017 2017 2017 2017 2017 2017 2017 2017 
2017 2017 2017 2017 2017 2017 2017 2017 2017 
2017 2017 2017 2017 2017 2017 2017 2017 2017 
2017 2017 2017 2017 2017 2017 2017 2017 2017 
2017 2017 2017 2017 2017 2017 2017 2017 2017 
2017 2017 2017 2017 2017 2017 2017 2017 2017 
2017 2017 2017 2017 2017 2017 2017 2017 2017 
2017 2017 2017 2017 2017 2017 2017 2017 2017 
2017 2017 2017 2017 2017 2017 2017 2017 2017 
2017 2017 2017 2017 2017 2017 2017 2017 2017 
2017 2017 2017 2017 2017 2017 2017 2017 2017 
2017 2017 2017 2017 2017 2017 2017 2017 2017 
2017 2017 2017 2017 2017 2017 2017 2017 2017 
2017 2017 2017 2017 2017 2017 2017 2017 2017 
2017 2017 2017 2017 2017 2017 2017 2017 2017 
2017 2017 2017 2017 2017 2017 2017 2017 2017 
2017 2017 2017 2017 2017 2017 2017 2017 2017 
2017 2017 2017 2017 2017 2017 2017 2017 2017 
2017 2017 2017 2017 2017 2017 2017 2017 2017 
2017 2017 2017 2017 2017 2017 2017 2017 2017 
2017 2017 2017 2017 2017 2017 2017 2017 2017 
2017 2017 2017 2017 2017 2017 2017 2017 2017 
2017 2017 2017 2017 2017 2017 2017 2017 2017 
2017 2017 2017 2017 2017 2017 2017 2017 2017 
2017 2017 2017 2017 2017 2017 2017 2017 2017 
2017 2017 2017 2017 2017 2017 2017 2017 2017 
2017 2017 2017 2017 2017 2017 2017 2017 2017 
2017 2017 2017 2017 2017 2017 2017 2017 2017 
2017 2017 2017 2017 2017 2017 2017 2017 2017 
2017 2017 2017 2017 2017 2017 2017 2017 2017 
2017 2017 2017 2017 2017 2017 2017 2017 2017 
2017 2017 2017 2017 2017 2017 2017 2017 2017 
2017 2017 2017 2017 2017 2017 2017 2017 2017 
2017 2017 2017 2017 2017 2017 2017 2017 2017 
2017 2017 2017 2017 2017 2017 2017 2017 2017 
2017 2017 2017 2017 2017 2017 2017 2017 2017 
2017 2017 2017 2017 2017 2017 2017 2017 2017 
2017 2017 2017 2017 2017 2017 2017 2017 2017 
2017 2017 2017 2017 2017 2017 2017 2017 2017 
2017 2017 2017 2017 2017 2017 2017 2017 2017 
2017 2017 2017 2017 2017 2017 2017 2017 2017 
2017 2017 2017 2017 2017 2017 2017 2017 2017 
2017 2017 2017 2017 2017 2017 2017 2017 2017 
2017 2017 2017 2017 2017 2017 2017 2017 2017 
2017 2017 2017 2017 2017 2017 2017 2017 2017 
2017 2017 2017 2017 2017 2017 2017 2017 2017 
2017 2017 2017 2017 2017 2017 2017 2017 2017 
2017 2017 2017 2017 2017 2017 2017 2017 2017 
2017 2017 2017 2017 2017 2017 2017 2017 2017 
2017 2017 2017 2017 2017 2017 2017 2017 2017 
2017 2017 2017 2017 2017 2017 2017 2017 2017 
2017 2017 2017 2017 2017 2017 2017 2017 2017 
2017 2017 2017 2017 2017 2017 2017 2017 2017 
2017 2017 2017 2017 2017 2017 2017 2017 2017 
2017 2017 2017 2017 2017 2017 2017 2017 2017 
2017 2017 2017 2017 2017 2017 2017 2017 2017 
2017 2017 2017 2017 2017 2017 2017 2017 2017 
2017 2017 2017 2017 2017 2017 2017 2017 2017 
2017 2017 2017 2017 2017 2017 2017 2017 2017 
2017 2017 2017 2017 2017 2017 2017 2017 2017 
2017 2017 2017 2017 2017 2017 2017 2017 2017 
2017 2017 2017 2017 2017 2017 2017 2017 2017 
2017 2017 2017 2017 2017 2017 2017 2017 2017 
2017 2017 2017 2017 2017 2017 2017 2017 2017 
2017 2017 2017 2017 2017 2017 2017 2017 2017 
2017 2017 2017 2017 2017 2017 2017 2017 2017 
2017 2017 2017 2017 2017 2017 2017 2017 2017 
2017 2017 2017 2017 2017 2017 2017 2017 2017 
2017 2017 2017 2017 2017 2017 2017 2017 2017 
2017 2017 2017 2017 2017 2017 2017 2017 2017 
2017 2017 2017 2017 2017 2017 2017 2017 2017 
2017 2017 2017 2017 2017 2017 2017 2017 2017 
2017 2017 2017 2017 2017 2017 2017 2017 2017 
2017 2017 2017 2017 2017 2017 2017 2017 2017 
2017 2017 2017 2017 2017 2017 2017 2017 2017 
2017 2017 2017 2017 2017 2017 2017 2017 2017 
2017 2017 2017 2017 2017 2017 2017 2017 2017 
2017 2017 2017 2017 2017 2017 2017 2017 2017 
2017 2017 2017 2017 2017 2017 2017 2017 2017 
2017 2017 2017 2017 2017 2017 2017 2017 2017 
2017 2017 2017 2017 2017 2017 2017 2017 2017 
2017 2017 2017 2017 2017 2017 2017 2017 2017 
2017 2017 2017 2017 2017 2017 2017 2017 2017 
2017 2017 2017 2017 2017 2017 2017 2017 2017 
2017 2017 2017 2017 2017 2017 2017 2017 2017 
2017 2017 2017 2017 2017 2017 2017 2017 2017 
2017 2017 2017 2017 2017 2017 2017 2017 2017 
2017 2017 2017 2017 2017 2017 2017 2017 2017 
2017 2017 2017 2017 2017 2017 2017 2017 2017 
2017 2017 2017 2017 2017 2017 2017 2017 2017 
2017 2017 2017 2017 2017 2017 2017 2017 2017 
2017 2017 2017 2017 2017 2017 2017 2017 2017 
2017 2017 2017 2017 2017 2017 2017 2017 2017 
2017 2017 2017 2017 2017 2017 2017 2017 2017 
2017 2017 2017 2017 2017 2017 2017 2017 2017 
2017 2017 2017 2017 2017 2017 2017 2017 2017 
2017 2017 2017 2017 2017 2017 2017 2017 2017 
2017 2017 2017 2017 2017 2017 2017 2017 2017 
2017 2017 2017 2017 2017 2017 2017 2017 2017 
2017 2017 2017 2017 2017 2017 2017 2017 2017 
2017 2017 2017 2017 2017 2017 2017 2017 2017 
2017 2017 2017 2017 2017 2017 2017 2017 2017 
2017 2017 2017 2017 2017 2017 2017 2017 2017 
2017 2017 2017 2017 2017 2017 2017 2017 2017 
2017 2017 2017 2017 2017 2017 2017 2017 2017 
2017 2017 2017 2017 2017 2017 2017 2017 2017 
2017 2017 2017 2017 2017 2017 2017 2017 2017 
2017 2017 2017 2017 2017 2017 2017 2017 2017 
2017 2017 2017 2017 2017 2017 2017 2017 2017 
2017 2017 2017 2017 2017 2017 2017 2017 2017 
2017 2017 2017 2017 2017 2017 2017 2017 2017 
2017 2017 2017 2017 2017 2017 2017 2017 2017 
2017 2017 2017 2017 2017 2017 2017 2017 2017 
2017 2017 2017 2017 2017 2017 2017 2017 2017 
2017 2017 2017 2017 2017 2017 2017 2017 2017 
2017 2017 2017 2017 2017 2017 2017 2017 2017 
2017 2017 2017 2017 2017 2017 2017 2017 2017 
2017 2017 2017 2017 2017 2017 2017 2017 2017 
2017 2017 2017 2017 2017 2017 2017 2017 2017 
2017 2017 2017 2017 2017 2017 2017 2017 2017 
2017 2017 2017 2017 2017 2017 2017 2017 2017 
2017 2017 2017 2017 2017 2017 2017 2017 2017 
2017 2017 2017 2017 2017 2017 2017 2017 2017 
2017 2017 2017 2017 2017 2017 2017 2017 2017 
2017 2017 2017 2017 2017 2017 2017 2017 2017 
2017 2017 2017 2017 2017 2017 2017 2017 2017 
2017 2017 2017 2017 2017 2017 2017 2017 2017 
2017 2017 2017 2017 2017 2017 2017 2017 2017 
2017 2017 2017 2017 2017 2017 2017 2017 2017 
2017 2017 2017 2017 2017 2017 2017 2017 2017 
2017 2017 2017 2017 2017 2017 2017 2017 2017 
2017 2017 2017 2017 2017 2017 2017 2017 2017 
2017 2017 2017 2017 2017 2017 2017 2017 2017 
2017 2017 2017 2017 2017 2017 2017 2017 2017 
2017 2017 2017 2017 2017 2017 2017 2017 2017 
2017 2017 2017 2017 2017 2017 2017 2017 2017 
2017 2017 2017 2017 2017 2017 2017 2017 2017 
2017 2017 2017 2017 2017 2017 2017 2017 2017 
2017 2017 2017 2017 2017 2017 2017 2017 2017 
2017 2017 2017 2017 2017 2017 2017 2017 2017 
2017 2017 2017 2017 2017 2017 2017 2017 2017 
2017 2017 2017 2017 2017 2017 2017 2017 2017 
2017 2017 2017 2017 2017 2017 2017 2017 2017 
2017 2017 2017 2017 2017 2017 2017 2017 2017 
2017 2017 2017 2017 2017 2017 2017 2017 2017 
2017 2017 2017 2017 2017 2017 2017 2017 2017 
2017 2017 2017 2017 2017 2017 2017 2017 2017 
2017 2017 2017 2017 2017 2017 2017 2017 2017 
2017 2017 2017 2017 2017 2017 2017 2017 2017 
2017 2017 2017 2017 2017 2017 2017 2017 2017 
2017 2017 2017 2017 2017 2017 2017 2017 2017 
2017 2017 2017 2017 2017 2017 2017 2017 2017 
2017 2017 2017 2017 2017 2017 2017 2017 2017 
2017 2017 2017 2017 2017 2017 2017 2017 2017 
2017 2017 2017 2017 2017 2017 2017 2017 2017 
2017 2017 2017 2017 2017 2017 2017 2017 2017 
2017 2017 2017 2017 2017 2017 2017 2017 2017 
2017 2017 2017 2017 2017 2017 2017 2017 2017 
2017 2017 2017 2017 2017 2017 2017 2017 2017 
2017 2017 2017 2017 2017 2017 2017 2017 2017 
2017 2017 2017 2017 2017 2017 2017 2017 2017 
2017 2017 2017 2017 2017 2017 2017 2017 2017 
2017 2017 2017 2017 2017 2017 2017 2017 2017 
2017 2017 2017 2017 2017 2017 2017 2017 2017 
2017 2017 2017 2017 2017 2017 2017 2017 2017 
2017 2017 2017 2017 2017 2017 2017 2017 2017 
2017 2017 2017 2017 2017 2017 2017 2017 2017 
2017 2017 2017 2017 2017 2017 2017 2017 2017 
2017 2017 2017 2017 2017 2017 2017 2017 2017 
2017 2017 2017 2017 2017 2017 2017 2017 2017 
2017 2017 2017 2017 2017 2017 2017 2017 2017 
2017 2017 2017 2017 2017 2017 2017 2017 2017 
2017 2017 2017 2017 2017 2017 2017 2017 2017 
2017 2017 2017 2017 2017 2017 2017 2017 2017 
2017 2017 2017 2017 2017 2017 2017 2017 2017 
2017 2017 2017 2017 2017 2017 2017 2017 2017 
2017 2017 2017 2017 2017 2017 2017 2017 2017 
2017 2017 2017 2017 2017 2017 2017 2017 2017 
2017 2017 2017 2017 2017 2017 2017 2017 2017 
2017 2017 2017 2017 2017 2017 2017 2017 2017 
2017 2017 2017 2017 2017 2017 2017 2017 2017 
2017 2017 2017 2017 2017 2017 2017 2017 2017 
2017 2017 2017 2017 2017 2017 2017 2017 2017 
2017 2017 2017 2017 2017 2017 2017 2017 2017 
2017 2017 2017 2017 2017 2017 2017 2017 2017 
2017 2017 2017 2017 2017 2017 2017 2017 2017 
2017 2017 2017 2017 2017 2017 2017 2017 2017 
2017 2017 2017 2017 2017 2017 2017 2017 2017 
2017 2017 2017 2017 2017 2017 2017 2017 2017 
2017 2017 2017 2017 2017 2017 2017 2017 2017 
2017 2017 2017 2017 2017 2017 2017 2017 2017 
2017 2017 2017 2017 2017 2017 2017 2017 2017 
2017 2017 2017 2017 2017 2017 2017 2017 2017 
2017 2017 2017 2017 2017 2017 2017 2017 2017 
2017 2017 2017 2017 2017 2017 2017 2017 2017 
2017 2017 2017 2017 2017 2017 2017 2017 2017 
2017 2017 2017 2017 2017 2017 2017 2017 2017 
2017 2017 2017 2017 2017 2017 2017 2017 2017 
2017 2017 2017 2017 2017 2017 2017 2017 2017 
2017 2017 2017 2017 2017 2017 2017 2017 2017 
2017 2017 2017 2017 2017 2017 2017 2017 2017 
2017 2017 2017 2017 2017 2017 2017 2017 2017 
2017 2017 2017 2017 2017 2017 2017 2017 2017 
2017 2017 2017 2017 2017 2017 2017 2017 2017 
2017 2017 2017 2017 2017 2017 2017 2017 2017 
2017 2017 2017 2017 2017 2017 2017 2017 2017 
2017 2017 2017 2017 2017 2017 2017 2017 2017 
2017 2017 2017 2017 2017 2017 2017 2017 2017 
2017 2017 2017 2017 2017 2017 2017 2017 2017 
2017 2017 2017 2017 2017 2017 2017 2017 2017 
2017 2017 2017 2017 2017 2017 2017 2017 2017 
2017 2017 2017 2017 2017 2017 2017 2017 2017 
2017 2017 2017 2017 2017 2017 2017 2017 2017 
2017 2017 2017 2017 2017 2017 2017 2017 2017 
2017 2017 2017 2017 2017 2017 2017 2017 2017 
2017 2017 2017 2017 2017 2017 2017 2017 2017 
2017 2017 2017 2017 2017 2017 2017 2017 2017 
2017 2017 2017 2017 2017 2017 2017 2017 2017 
2017 2017 2017 2017 2017 2017 2017 2017 2017 
2017 2017 2017 2017 2017 2017 2017 2017 2017 
2017 2017 2017 2017 2017 2017 2017 2017 2017 
2017 2017 2017 2017 2017 2017 2017 2017 2017 
2017 2017 2017 2017 2017 2017 2017 2017 2017 
2017 2017 2017 2017 2017 2017 2017 2017 2017 
2017 2017 2017 2017 2017 2017 2017 2017 2017 
2017 2017 2017 2017 2017 2017 2017 2017 2017 
2017 2017 2017 2017 2017 2017 2017 2017 2017 
2017 2017 2017 2017 2017 2017 2017 2017 2017 
2017 2017 2017 2017 2017 2017 2017 2017 2017 
2017 2017 2017 2017 2017 2017 2017 2017 2017 
2017 2017 2017 2017 2017 2017 2017 2017 2017 
2017 2017 2017 2017 2017 2017 2017 2017 2017 
2017 2017 2017 2017 2017 2017 2017 2017 2017 
2017 2017 2017 2017 2017 2017 2017 2017 2017 
2017 2017 2017 2017 2017 2017 2017 2017 2017 
2017 2017 2017 2017 2017 2017 2017 2017 2017 
2017 2017 2017 2017 2017 2017 2017 2017 2017 
2017 2017 2017 2017 2017 2017 2017 2017 2017 
2017 2017 2017 2017 2017 2017 2017 2017 2017 
2017 2017 2017 2017 2017 2017 2017 2017 2017 
2017 2017 2017 2017 2017 2017 2017 2017 2017 
2017 2017 2017 2017 2017 2017 2017 2017 2017 
2017 2017 2017 2017 2017 2017 2017 2017 2017 
2017 2017 2017 2017 2017 2017 2017 2017 2017 
2017 2017 2017 2017 2017 2017 2017 2017 2017 
2017 2017 2017 2017 2017 2017 2017 2017 2017 
2017 2017 2017 2017 2017 2017 2017 2017 2017 
2017 2017 2017 2017 2017 2017 2017 2017 2017 
2017 2017 2017 2017 2017 2017 2017 2017 2017 
2017 2017 2017 2017 2017 2017 2017 2017 2017 
2017 2017 2017 2017 2017 2017 2017 2017 2017 
2017 2017 2017 2017 2017 2017 2017 2017 2017 
2017 2017 2017 2017 2017 2017 2017 2017 2017 
2017 2017 2017 2017 2017 2017 2017 2017 2017 
2017 2017 2017 2017 2017 2017 2017 2017 2017 
2017 2017 2017 2017 2017 2017 2017 2017 2017 
2017 2017 2017 2017 2017 2017 2017 2017 2017 
2017 2017 2017 2017 2017 2017 2017 2017 2017 
2017 2017 2017 2017 2017 2017 2017 2017 2017 
2017 2017 2017 2017 2017 2017 2017 2017 2017 
2017 2017 2017 2017 2017 2017 2017 2017 2017 
2017 2017 2017 2017 2017 2017 2017 2017 2017 
2017 2017 2017 2017 2017 2017 2017 2017 2017 
2017 2017 2017 2017 2017 2017 2017 2017 2017 
2017 2017 2017 2017 2017 2017 2017 2017 2017 
2017 2017 2017 2017 2017 2017 2017 2017 2017 
2017 2017 2017 2017 2017 2017 2017 2017 2017 
2017 2017 2017 2017 2017 2017 2017 2017 2017 
2017 2017 2017 2017 2017 2017 2017 2017 2017 
2017 2017 2017 2017 2017 2017 2017 2017 2017 
2017 2017 2017 2017 2017 2017 2017 2017 2017 
2017 2017 2017 2017 2017 2017 2017 2017 2017 
2017 2017 2017 2017 2017 2017 2017 2017 2017 
2017 2017 2017 2017 2017 2017 2017 2017 2017 
2017 2017 2017 2017 2017 2017 2017 2017 2017 
2017 2017 2017 2017 2017 2017 2017 2017 2017 
2017 2017 2017 2017 2017 2017 2017 2017 2017 
2017 2017 2017 2017 2017 2017 2017 2017 2017 
2017 2017 2017 2017 2017 2017 2017 2017 2017 
2017 2017 2017 2017 2017 2017 2017 2017 2017 
2017 2017 2017 2017 2017 2017 2017 2017 2017 
2017 2017 2017 2017 2017 2017 2017 2017 2017 
2017 2017 2017 2017 2017 2017 2017 2017 2017 
2017 2017 2017 2017 2017 2017 2017 2017 2017 
2017 2017 2017 2017 2017 2017 2017 2017 2017 
2017 2017 2017 2017 2017 2017 2017 2017 2017 
2017 2017 2017 2017 2017 2017 2017 2017 2017 
2017 2017 2017 2017 2017 2017 2017 2017 2017 
2017 2017 2017 2017 2017 2017 2017 2017 2017 
2017 2017 2017 2017 2017 2017 2017 2017 2017 
2017 2017 2017 2017 2017 2017 2017 2017 2017 
2017 2017 2017 2017 2017 2017 2017 2017 2017 
2017 2017 2017 2017 2017 2017 2017 2017 2017 
2017 2017 2017 2017 2017 2017 2017 2017 2017 
2017 2017 2017 2017 2017 2017 2017 2017 2017 
2017 2017 2017 2017 2017 2017 2017 2017 2017 
2017 2017 2017 2017 2017 2017 2017 2017 2017 
2017 2017 2017 2017 2017 2017 2017 2017 2017 
2017 2017 2017 2017 2017 2017 2017 2017 2017 
2017 2017 2017 2017 2017 2017 2017 2017 2017 
2017 2017 2017 2017 2017 2017 2017 2017 2017 
2017 2017 2017 2017 2017 2017 2017 2017 2017 
2017 2017 2017 2017 2017 2017 2017 2017 2017 
2017 2017 2017 2017 2017 2017 2017 2017 2017 
2017 2017 2017 2017 2017 2017 2017 2017 2017 
2017 2017 2017 2017 2017 2017 2017 2017 2017 
2017 2017 2017 2017 2017 2017 2017 2017 2017 
2017 2017 2017 2017 2017 2017 2017 2017 2017 
2017 2017 2017 2017 2017 2017 2017 2017 2017 
2017 2017 2017 2017 2017 2017 2017 2017 2017 
2017 2017 2017 2017 2017 2017 2017 2017 2017 
2017 2017 2017 2017 2017 2017 2017 2017 2017 
2017 2017 2017 2017 2017 2017 2017 2017 2017 
2017 2017 2017 2017 2017 2017 2017 2017 2017 
2017 2017 2017 2017 2017 2017 2017 2017 2017 
2017 2017 2017 2017 2017 2017 2017 2017 2017 
2017 2017 2017 2017 2017 2017 2017 2017 2017 
2017 2017 2017 2017 2017 2017 2017 2017 2017 
2017 2017 2017 2017 2017 2017 2017 2017 2017 
2017 2017 2017 2017 2017 2017 2017 2017 2017 
2017 2017 2017 2017 2017 2017 2017 2017 2017 
2017 2017 2017 2017 2017 2017 2017 2017 2017 
2017 2017 2017 2017 2017 2017 2017 2017 2017 
2017 2017 2017 2017 2017 2017 2017 2017 2017 
2017 2017 2017 2017 2017 2017 2017 2017 2017 
2017 2017 2017 2017 2017 2017 2017 2017 2017 
2017 2017 2017 2017 2017 2017 2017 2017 2017 
2017 2017 2017 2017 2017 2017 2017 2017 2017 
2017 2017 2017 2017 2017 2017 2017 2017 2017 
2017 2017 2017 2017 2017 2017 2017 2017 2017 
2017 2017 2017 2017 2017 2017 2017 2017 2017 
2017 2017 2017 2017 2017 2017 2017 2017 2017 
2017 2017 2017 2017 2017 2017 2017 2017 2017 
2017 2017 2017 2017 2017 2017 2017 2017 2017 
2017 2017 2017 2017 2017 2017 2017 2017 2017 
2017 2017 2017 2017 2017 2017 2017 2017 2017 
2017 2017 2017 2017 2017 2017 2017 2017 2017 
2017 2017 2017 2017 2017 2017 2017 2017 2017 
2017 2017 2017 2017 2017 2017 2017 2017 2017 
2017 2017 2017 2017 2017 2017 2017 2017 2017 
2017 2017 2017 2017 2017 2017 2017 2017 2017 
2017 2017 2017 2017 2017 2017 2017 2017 2017 
2017 2017 2017 2017 2017 2017 2017 2017 2017 
2017 2017 2017 2017 2017 2017 2017 2017 2017 
2017 2017 2017 2017 2017 2017 2017 2017 2017 
2017 2017 2017 2017 2017 2017 2017 2017 2017 
2017 2017 2017 2017 2017 2017 2017 2017 2017 
2017 2017 2017 2017 2017 2017 2017 2017 2017 
2017 2017 2017 2017 2017 2017 2017 2017 2017 
2017 2017 2017 2017 2017 2017 2017 2017 2017 
2017 2017 2017 2017 2017 2017 2017 2017 2017 
2017 2017 2017 2017 2017 2017 2017 2017 2017 
2017 2017 2017 2017 2017 2017 2017 2017 2017 
2017 2017 2017 2017 2017 2017 2017 2017 2017 
2017 2017 2017 2017 2017 2017 2017 2017 2017 
2017 2017 2017 2017 2017 2017 2017 2017 2017 
2017 2017 2017 2017 2017 2017 2017 2017 2017 
2017 2017 2017 2017 2017 2017 2017 2017 2017 
2017 2017 2017 2017 2017 2017 2017 2017 2017 
2017 2017 2017 2017 2017 2017 2017 2017 2017 
2017 2017 2017 2017 2017 2017 2017 2017 2017 
2017 2017 2017 2017 2017 2017 2017 2017 2017 
2017 2017 2017 2017 2017 2017 2017 2017 2017 
2017 2017 2017 2017 2017 2017 2017 2017 2017 
2017 2017 2017 2017 2017 2017 2017 2017 2017 
2017 2017 2017 2017 2017 2017 2017 2017 2017 
2017 2017 2017 2017 2017 2017 2017 2017 2017 
2017 2017 2017 2017 2017 2017 2017 2017 2017 
2017 2017 2017 2017 2017 2017 2017 2017 2017 