# vtk DataFile Version 4.0
vtk output
ASCII
DATASET POLYDATA
POINTS 3190 float
-31.1875 54.8028 -7.91717 -30.9638 54.4886 -7.45464 -30.6976 54.3605 -7.83584 
-31.7386 54.7663 -8.12925 -31.6552 54.5943 -7.56172 -32.3428 54.2275 -7.97862 
-31.0679 54.4026 -8.51584 -31.9842 54.3992 -8.56602 -31.3274 54.0312 -6.95244 
-31.1116 53.2015 -6.66113 -30.6276 53.7711 -7.25525 -32.3191 54.0033 -7.06827 
-32.07 53.4154 -6.55837 -32.9637 53.7192 -6.96074 -32.8327 53.5127 -6.68668 
-33.3329 53.1635 -7.08157 -30.3344 53.3597 -8.24434 -32.8861 53.7027 -7.49478 
-32.748 53.6517 -8.1081 -39.9446 53.6062 -7.99709 -39.9323 53.5077 -7.71267 
-39.7542 53.3931 -8.00578 -40.1904 53.4623 -7.85833 -30.1414 53.7721 -8.87341 
-29.8615 53.458 -8.775 -29.7728 53.4713 -9.03115 -30.9366 53.9576 -9.28591 
-31.8627 54.0641 -9.2237 -32.5519 53.6952 -8.77276 -40.1125 53.4535 -8.26723 
-41.0123 53.5548 -8.75333 -40.7754 53.4463 -9.0524 -41.0485 53.6356 -9.02321 
-41.4077 53.2725 -9.09322 -30.1509 53.57 -9.22676 -30.899 53.522 -9.49423 
-31.5267 53.3421 -10.023 -31.9803 53.8595 -10.1118 -32.6163 53.5474 -9.7788 
-41.1093 53.3499 -9.46755 -32.0627 53.8216 -10.8902 -31.6938 53.2098 -11.1915 
-32.8728 53.6185 -10.5423 -32.705 53.7997 -11.0482 -33.3604 53.2855 -10.9352 
-32.3617 53.3731 -11.6069 -33.0597 53.2875 -11.3988 -30.8741 52.2239 -6.60172 
-30.2904 52.5349 -7.33215 -32.0238 52.5249 -6.44823 -32.9232 52.7798 -6.59634 
-33.5806 52.2093 -6.98578 -40.1331 53.0426 -7.25592 -40.2874 52.2563 -6.70151 
-39.5859 52.6152 -7.10057 -41.315 52.9337 -7.06983 -40.8749 52.518 -6.55032 
-42.2715 52.8521 -7.22205 -41.7096 52.4816 -6.67435 -42.3625 52.3922 -7.01952 
-29.9602 52.7208 -7.8799 -29.8863 52.4817 -7.74612 -29.8377 52.4495 -7.9953 
-33.2077 53.1803 -8.0444 -33.9593 52.4636 -7.54244 -33.7273 52.708 -8.26752 
-34.3555 52.3005 -7.9034 -38.2919 52.7046 -8.02493 -37.7504 52.2042 -7.64715 
-37.7061 52.3944 -8.11523 -39.2081 52.9714 -7.8946 -38.7959 52.4063 -7.49735 
-40.8912 53.2777 -8.22229 -41.9289 53.0767 -7.79877 -42.8689 52.3994 -7.50278 
-42.763 52.8146 -8.13782 -43.3453 52.161 -8.09902 -30.1492 53.3188 -8.99272 
-30.2427 52.4397 -8.22953 -30.9054 53.0502 -9.05241 -30.8415 52.519 -8.60112 
-31.3346 52.4146 -9.18038 -33.2623 52.9644 -9.20986 -33.7196 52.5404 -8.8736 
-34.125 52.3917 -8.38994 -38.14 52.5633 -8.58924 -38.425 52.4993 -9.40205 
-38.9511 52.8993 -8.98265 -39.9883 53.2072 -8.88005 -42.0287 53.0065 -8.69497 
-42.7008 52.3786 -9.1642 -43.1934 52.3753 -8.68866 -31.3896 52.5233 -10.2145 
-33.3255 53.1073 -10.2399 -33.824 52.5018 -9.45014 -33.77 52.6786 -9.93386 
-34.2354 52.3496 -9.88542 -39.1438 52.8787 -10.1242 -38.5296 52.5143 -10.3739 
-39.8036 53.0458 -9.92057 -40.6762 52.9935 -10.0908 -41.5487 52.5009 -10.1108 
-42.062 52.5192 -9.58509 -31.3742 52.6359 -11.1355 -33.9953 52.5839 -10.5341 
-33.5805 52.7433 -11.1739 -39.0346 52.7938 -10.8716 -38.6089 52.5287 -10.9967 
-39.8426 52.8626 -10.8596 -40.5927 52.5945 -10.9802 -41.106 52.368 -10.7186 
-31.9199 52.924 -12.0184 -31.6387 52.4593 -11.8231 -32.2563 52.6664 -12.1216 
-32.9369 52.3466 -11.6358 -39.0859 52.2708 -11.4772 -40.2235 52.2627 -11.401 
-31.955 52.4995 -12.2816 -30.0916 51.9331 -6.96324 -30.0349 51.4275 -6.71713 
-29.7609 51.2485 -7.09333 -30.7488 51.335 -6.36623 -31.919 51.5263 -6.36115 
-32.9327 51.7833 -6.61743 -33.572 51.2137 -7.01748 -39.8695 52.0739 -7.32048 
-40.384 51.3798 -7.15045 -40.9033 51.5561 -6.58474 -41.9024 51.9355 -6.8394 
-41.6201 51.1365 -6.93362 -30.1766 52.1005 -7.94428 -30.1488 51.395 -7.37813 
-30.5941 51.4075 -7.8069 -34.0724 51.6468 -7.33925 -35.0392 51.9421 -8.2052 
-34.8896 51.4039 -7.6482 -36.2464 51.7922 -8.07076 -35.9764 51.2907 -7.56969 
-37.1547 52.0172 -8.07219 -36.9606 51.5777 -7.55246 -38.0079 51.6132 -7.6096 
-39.0939 51.8962 -7.82127 -38.5464 51.4949 -7.99655 -39.8816 51.7597 -8.05513 
-40.3446 51.5073 -7.84192 -42.4682 51.5519 -7.28876 -43.1667 51.6364 -7.6651 
-43.4596 51.2981 -8.05163 -30.9724 51.6214 -8.40842 -31.3204 51.5857 -9.1453 
-34.3375 52.1986 -9.11552 -35.1829 51.9804 -9.19286 -36.0182 51.9328 -9.00758 
-36.9939 51.9498 -8.95902 -37.7158 52.1867 -8.79053 -39.1762 51.2258 -8.50009 
-40.1169 51.2471 -8.36748 -43.1214 52.059 -9.10627 -43.3864 51.585 -8.72354 
-31.061 51.859 -9.98918 -30.9563 51.3296 -9.44418 -30.6595 51.3689 -10.1181 
-34.8793 52.0573 -10.1907 -35.9877 51.9358 -10.0333 -36.9893 51.9448 -10.0107 
-37.8482 52.1086 -9.78848 -42.0613 51.9932 -10.1395 -42.4622 51.4236 -9.98023 
-42.9616 51.4866 -9.31756 -31.1047 51.9773 -10.9904 -30.6877 51.2512 -10.81 
-34.1128 52.1337 -11.0215 -34.868 51.8136 -11.0318 -35.752 51.8038 -10.9017 
-36.7527 51.7979 -10.9012 -37.9189 52.0461 -10.92 -40.9019 52.0842 -11.1874 
-41.4856 51.7448 -10.9482 -42.0478 51.481 -10.6315 -31.1949 51.3741 -11.3485 
-31.9128 51.733 -11.6722 -32.1254 52.2328 -12.1021 -32.789 51.3144 -11.4449 
-33.9566 51.4415 -11.5254 -35.2839 51.4796 -11.5437 -36.3163 51.4574 -11.551 
-37.3041 51.4853 -11.5658 -38.2197 51.7095 -11.698 -38.859 51.7821 -11.978 
-38.5832 51.4389 -12.2 -39.4993 51.4208 -12.1529 -40.1386 51.4691 -11.7441 
-41.0976 51.3876 -11.4479 -39.0818 51.3388 -12.4524 -31.3374 50.9414 -5.9961 
-30.9294 50.1709 -5.64565 -30.5181 50.676 -6.0492 -32.1452 50.8458 -6.07122 
-31.8035 50.4874 -5.73644 -32.4829 50.1758 -5.99652 -29.9417 50.606 -6.38368 
-29.6339 50.346 -6.91126 -32.8852 50.7558 -6.5125 -33.5377 50.2225 -7.02755 
-40.1668 50.8173 -6.87741 -40.109 50.3531 -6.63252 -39.7773 50.1191 -7.22766 
-40.85 50.5114 -6.65193 -41.3994 50.4996 -6.95967 -29.9584 50.5932 -7.36708 
-30.6937 50.5058 -7.73995 -31.0718 50.8724 -8.03877 -31.2449 50.6633 -8.29727 
-34.176 50.7654 -7.52402 -34.8232 50.7248 -7.91973 -34.5507 50.148 -8.01931 
-35.4156 50.5952 -7.91616 -36.0606 50.5749 -7.67853 -37.0459 50.7696 -7.61669 
-38.0446 50.9837 -8.02552 -37.5726 50.3762 -8.16007 -40.1149 50.5804 -7.43678 
-40.3142 50.8179 -7.9946 -41.9616 50.3788 -7.41758 -42.9946 50.7962 -7.73055 
-43.3314 50.6905 -8.3109 -31.0081 50.2297 -8.40977 -30.676 50.5016 -9.1274 
-31.1477 50.8605 -8.84661 -35.2479 50.191 -8.24624 -38.2813 50.6706 -8.6591 
-38.9116 50.7529 -9.07084 -38.461 50.34 -9.20953 -39.4157 50.4133 -8.93759 
-39.887 50.5437 -8.47405 -43.184 50.8441 -8.88795 -42.7368 50.2774 -9.05815 
-43.1037 50.3952 -8.57325 -30.5105 50.4145 -10.0282 -38.9926 50.1674 -9.39923 
-42.5862 50.4486 -10.0862 -30.7982 50.6172 -10.7443 -31.0866 50.9267 -11.1733 
-31.3639 50.1602 -11.3101 -33.1931 50.8613 -11.1908 -32.6724 50.4359 -11.2315 
-33.006 50.2543 -10.7935 -33.2792 50.2928 -10.9435 -41.8895 51.0413 -11.1852 
-42.395 50.5015 -10.7795 -31.9185 50.7024 -11.5532 -33.6112 50.3827 -11.9087 
-34.065 50.9068 -12.0023 -34.8706 50.9952 -12.1434 -36.0018 51.1063 -12.1767 
-37.018 51.0977 -12.1961 -37.9502 51.1907 -12.1965 -39.9877 51.0557 -12.046 
-40.5105 50.4031 -12.1484 -41.1576 50.4452 -11.751 -41.933 50.3678 -11.4148 
-34.3078 50.5192 -12.479 -35.0611 50.563 -12.7185 -35.5985 50.409 -13.2273 
-35.7998 50.7639 -12.7894 -36.763 50.8264 -12.9081 -37.7607 50.8421 -12.9201 
-38.7086 50.9198 -12.8812 -39.5547 50.4887 -13.0609 -40.0126 50.508 -12.5365 
-36.366 50.4683 -13.487 -37.325 50.4904 -13.5733 -38.2961 50.4799 -13.5763 
-39.0456 50.3471 -13.5771 -30.0542 50.091 -5.92268 -30.1528 49.2793 -5.62261 
-29.5645 49.6741 -6.24544 -31.1589 49.3321 -5.44005 -31.8861 49.7445 -5.60133 
-32.5843 49.2256 -5.97757 -29.5189 49.1621 -6.86107 -33.0606 49.7128 -6.49832 
-33.5359 49.2398 -7.02884 -40.2171 49.6812 -6.68914 -39.7187 49.6293 -6.97074 
-40.9823 49.9156 -6.93851 -40.4753 49.4002 -6.92972 -30.1297 49.6894 -7.49304 
-30.8799 49.9548 -7.94657 -30.5125 49.4814 -8.17388 -34.0002 49.7551 -7.53906 
-34.4657 49.2118 -8.21704 -36.067 50.0558 -8.18601 -36.9087 50.0918 -8.11169 
-39.9598 50.1814 -7.91703 -39.4977 49.5222 -8.03539 -40.972 49.4014 -7.46067 
-42.0404 49.8423 -8.0607 -41.5109 49.2467 -8.17886 -42.7961 50.2494 -8.12076 
-30.4587 49.4449 -9.012 -35.1066 49.6022 -8.5372 -35.9259 49.644 -8.66715 
-36.791 49.7064 -8.76208 -36.5979 49.3758 -9.22167 -37.689 49.9956 -8.87966 
-39.2922 49.7311 -9.10783 -42.2232 49.5197 -8.45911 -43.0381 49.6729 -9.17719 
-42.8225 49.454 -8.7786 -43.1949 49.4058 -8.97212 -30.6421 49.2896 -9.708 
-37.39 49.4482 -9.51024 -38.3727 49.5258 -9.5512 -38.9748 49.6022 -9.43107 
-42.7227 49.5524 -9.94104 -43.0511 49.2505 -9.25252 -30.8837 49.8368 -10.4965 
-31.4094 49.3059 -11.1557 -32.6702 49.453 -11.0078 -33.1681 49.5822 -10.5144 
-33.3849 49.6108 -11.0151 -42.4475 49.4242 -10.9801 -31.931 49.8364 -11.9865 
-31.7103 49.2892 -12.0216 -32.3335 49.6555 -11.8266 -33.5575 49.3173 -11.9806 
-41.0196 50.0098 -12.0325 -41.3752 49.5694 -11.9812 -41.9392 49.3284 -11.6042 
-32.0854 49.1501 -12.3265 -34.1057 50.0081 -13.0715 -33.6129 49.3961 -13.1321 
-34.9124 50.197 -13.2024 -40.0597 49.9527 -13.0729 -40.4279 49.5086 -13.0047 
-40.9759 49.309 -12.4492 -34.0704 49.5539 -13.7159 -34.3635 49.3103 -14.1894 
-34.7447 49.7781 -13.8331 -35.7243 49.9824 -13.9053 -36.7971 50.0248 -14.0849 
-37.7969 50.0226 -14.1006 -38.7322 49.9195 -14.0883 -39.4914 49.7297 -13.9222 
-40.0477 49.4729 -13.6047 -35.0534 49.3303 -14.3972 -36.1221 49.3982 -14.5895 
-37.2647 49.5384 -14.5877 -38.3153 49.3414 -14.5913 -39.2628 49.193 -14.4213 
-43.1954 48.8929 -3.21805 -42.8862 48.1943 -2.63534 -42.3762 48.6145 -3.12701 
-44.3165 48.9399 -3.13886 -43.8397 48.5376 -2.61371 -45.0811 48.8182 -3.2229 
-44.9108 48.2695 -2.46772 -45.5654 48.4144 -3.01441 -42.1669 48.9042 -4.0597 
-41.918 48.5838 -3.47543 -41.4048 48.5416 -3.94287 -43.1964 49.0738 -4.18969 
-44.0418 49.0669 -4.04117 -44.9184 48.9318 -4.00994 -45.5759 48.5571 -3.76412 
-41.1745 48.7496 -4.76027 -40.818 48.3527 -4.42507 -40.6319 48.1716 -5.17 
-41.9483 48.9019 -5.17008 -42.9668 49.0309 -5.05414 -43.8364 49.0509 -4.91591 
-44.6829 48.8476 -5.10148 -45.4753 48.5177 -4.72191 -30.0579 48.1878 -5.54379 
-29.4971 48.6973 -6.10768 -30.9783 48.4622 -5.41556 -31.9234 48.7458 -5.58244 
-32.5682 48.1978 -6.00321 -41.2742 48.5502 -5.51752 -42.0147 48.6194 -5.75218 
[...]
CELL_DATA 6380
SCALARS scalars float
LOOKUP_TABLE default
1019 1019 1019 1019 1019 1019 1019 1019 1019 
1019 1019 1019 1019 1019 1019 1019 1019 1019 
1019 1019 1019 1019 1019 1019 1019 1019 1019 
1019 1019 1019 1019 1019 1019 1019 1019 1019 
1019 1019 1019 1019 1019 1019 1019 1019 1019 
1019 1019 1019 1019 1019 1019 1019 1019 1019 
1019 1019 1019 1019 1019 1019 1019 1019 1019 
1019 1019 1019 1019 1019 1019 1019 1019 1019 
1019 1019 1019 1019 1019 1019 1019 1019 1019 
1019 1019 1019 1019 1019 1019 1019 1019 1019 
1019 1019 1019 1019 1019 1019 1019 1019 1019 
1019 1019 1019 1019 1019 1019 1019 1019 1019 
1019 1019 1019 1019 1019 1019 1019 1019 1019 
1019 1019 1019 1019 1019 1019 1019 1019 1019 
1019 1019 1019 1019 1019 1019 1019 1019 1019 
1019 1019 1019 1019 1019 1019 1019 1019 1019 
1019 1019 1019 1019 1019 1019 1019 1019 1019 
1019 1019 1019 1019 1019 1019 1019 1019 1019 
1019 1019 1019 1019 1019 1019 1019 1019 1019 
1019 1019 1019 1019 1019 1019 1019 1019 1019 
1019 1019 1019 1019 1019 1019 1019 1019 1019 
1019 1019 1019 1019 1019 1019 1019 1019 1019 
1019 1019 1019 1019 1019 1019 1019 1019 1019 
1019 1019 1019 1019 1019 1019 1019 1019 1019 
1019 1019 1019 1019 1019 1019 1019 1019 1019 
1019 1019 1019 1019 1019 1019 1019 1019 1019 
1019 1019 1019 1019 1019 1019 1019 1019 1019 
1019 1019 1019 1019 1019 1019 1019 1019 1019 
1019 1019 1019 1019 1019 1019 1019 1019 1019 
1019 1019 1019 1019 1019 1019 1019 1019 1019 
1019 1019 1019 1019 1019 1019 1019 1019 1019 
1019 1019 1019 1019 1019 1019 1019 1019 1019 
1019 1019 1019 1019 1019 1019 1019 1019 1019 
1019 1019 1019 1019 1019 1019 1019 1019 1019 
1019 1019 1019 1019 1019 1019 1019 1019 1019 
1019 1019 1019 1019 1019 1019 1019 1019 1019 
1019 1019 1019 1019 1019 1019 1019 1019 1019 
1019 1019 1019 1019 1019 1019 1019 1019 1019 
1019 1019 1019 1019 1019 1019 1019 1019 1019 
1019 1019 1019 1019 1019 1019 1019 1019 1019 
1019 1019 1019 1019 1019 1019 1019 1019 1019 
1019 1019 1019 1019 1019 1019 1019 1019 1019 
1019 1019 1019 1019 1019 1019 1019 1019 1019 
1019 1019 1019 1019 1019 1019 1019 1019 1019 
1019 1019 1019 1019 1019 1019 1019 1019 1019 
1019 1019 1019 1019 1019 1019 1019 1019 1019 
1019 1019 1019 1019 1019 1019 1019 1019 1019 
1019 1019 1019 1019 1019 1019 1019 1019 1019 
1019 1019 1019 1019 1019 1019 1019 1019 1019 
1019 1019 1019 1019 1019 1019 1019 1019 1019 
1019 1019 1019 1019 1019 1019 1019 1019 1019 
1019 1019 1019 1019 1019 1019 1019 1019 1019 
1019 1019 1019 1019 1019 1019 1019 1019 1019 
1019 1019 1019 1019 1019 1019 1019 1019 1019 
1019 1019 1019 1019 1019 1019 1019 1019 1019 
1019 1019 1019 1019 1019 1019 1019 1019 1019 
1019 1019 1019 1019 1019 1019 1019 1019 1019 
1019 1019 1019 1019 1019 1019 1019 1019 1019 
1019 1019 1019 1019 1019 1019 1019 1019 1019 
1019 1019 1019 1019 1019 1019 1019 1019 1019 
1019 1019 1019 1019 1019 1019 1019 1019 1019 
1019 1019 1019 1019 1019 1019 1019 1019 1019 
1019 1019 1019 1019 1019 1019 1019 1019 1019 
1019 1019 1019 1019 1019 1019 1019 1019 1019 
1019 1019 1019 1019 1019 1019 1019 1019 1019 
1019 1019 1019 1019 1019 1019 1019 1019 1019 
1019 1019 1019 1019 1019 1019 1019 1019 1019 
1019 1019 1019 1019 1019 1019 1019 1019 1019 
1019 1019 1019 1019 1019 1019 1019 1019 1019 
1019 1019 1019 1019 1019 1019 1019 1019 1019 
1019 1019 1019 1019 1019 1019 1019 1019 1019 
1019 1019 1019 1019 1019 1019 1019 1019 1019 
1019 1019 1019 1019 1019 1019 1019 1019 1019 
1019 1019 1019 1019 1019 1019 1019 1019 1019 
1019 1019 1019 1019 1019 1019 1019 1019 1019 
1019 1019 1019 1019 1019 1019 1019 1019 1019 
1019 1019 1019 1019 1019 1019 1019 1019 1019 
1019 1019 1019 1019 1019 1019 1019 1019 1019 
1019 1019 1019 1019 1019 1019 1019 1019 1019 
1019 1019 1019 1019 1019 1019 1019 1019 1019 
1019 1019 1019 1019 1019 1019 1019 1019 1019 
1019 1019 1019 1019 1019 1019 1019 1019 1019 
1019 1019 1019 1019 1019 1019 1019 1019 1019 
1019 1019 1019 1019 1019 1019 1019 1019 1019 
1019 1019 1019 1019 1019 1019 1019 1019 1019 
1019 1019 1019 1019 1019 1019 1019 1019 1019 
1019 1019 1019 1019 1019 1019 1019 1019 1019 
1019 1019 1019 1019 1019 1019 1019 1019 1019 
1019 1019 1019 1019 1019 1019 1019 1019 1019 
1019 1019 1019 1019 1019 1019 1019 1019 1019 
1019 1019 1019 1019 1019 1019 1019 1019 1019 
1019 1019 1019 1019 1019 1019 1019 1019 1019 
1019 1019 1019 1019 1019 1019 1019 1019 1019 
1019 1019 1019 1019 1019 1019 1019 1019 1019 
1019 1019 1019 1019 1019 1019 1019 1019 1019 
1019 1019 1019 1019 1019 1019 1019 1019 1019 
1019 1019 1019 1019 1019 1019 1019 1019 1019 
1019 1019 1019 1019 1019 1019 1019 1019 1019 
1019 1019 1019 1019 1019 1019 1019 1019 1019 
1019 1019 1019 1019 1019 1019 1019 1019 1019 
1019 1019 1019 1019 1019 1019 1019 1019 1019 
1019 1019 1019 1019 1019 1019 1019 1019 1019 
1019 1019 1019 1019 1019 1019 1019 1019 1019 
1019 1019 1019 1019 1019 1019 1019 1019 1019 
1019 1019 1019 1019 1019 1019 1019 1019 1019 
1019 1019 1019 1019 1019 1019 1019 1019 1019 
1019 1019 1019 1019 1019 1019 1019 1019 1019 
1019 1019 1019 1019 1019 1019 1019 1019 1019 
1019 1019 1019 1019 1019 1019 1019 1019 1019 
1019 1019 1019 1019 1019 1019 1019 1019 1019 
1019 1019 1019 1019 1019 1019 1019 1019 1019 
1019 1019 1019 1019 1019 1019 1019 1019 1019 
1019 1019 1019 1019 1019 1019 1019 1019 1019 
1019 1019 1019 1019 1019 1019 1019 1019 1019 
1019 1019 1019 1019 1019 1019 1019 1019 1019 
1019 1019 1019 1019 1019 1019 1019 1019 1019 
1019 1019 1019 1019 1019 1019 1019 1019 1019 
1019 1019 1019 1019 1019 1019 1019 1019 1019 
1019 1019 1019 1019 1019 1019 1019 1019 1019 
1019 1019 1019 1019 1019 1019 1019 1019 1019 
1019 1019 1019 1019 1019 1019 1019 1019 1019 
1019 1019 1019 1019 1019 1019 1019 1019 1019 
1019 1019 1019 1019 1019 1019 1019 1019 1019 
1019 1019 1019 1019 1019 1019 1019 1019 1019 
1019 1019 1019 1019 1019 1019 1019 1019 1019 
1019 1019 1019 1019 1019 1019 1019 1019 1019 
1019 1019 1019 1019 1019 1019 1019 1019 1019 
1019 1019 1019 1019 1019 1019 1019 1019 1019 
1019 1019 1019 1019 1019 1019 1019 1019 1019 
1019 1019 1019 1019 1019 1019 1019 1019 1019 
1019 1019 1019 1019 1019 1019 1019 1019 1019 
1019 1019 1019 1019 1019 1019 1019 1019 1019 
1019 1019 1019 1019 1019 1019 1019 1019 1019 
1019 1019 1019 1019 1019 1019 1019 1019 1019 
1019 1019 1019 1019 1019 1019 1019 1019 1019 
1019 1019 1019 1019 1019 1019 1019 1019 1019 
1019 1019 1019 1019 1019 1019 1019 1019 1019 
1019 1019 1019 1019 1019 1019 1019 1019 1019 
1019 1019 1019 1019 1019 1019 1019 1019 1019 
1019 1019 1019 1019 1019 1019 1019 1019 1019 
1019 1019 1019 1019 1019 1019 1019 1019 1019 
1019 1019 1019 1019 1019 1019 1019 1019 1019 
1019 1019 1019 1019 1019 1019 1019 1019 1019 
1019 1019 1019 1019 1019 1019 1019 1019 1019 
1019 1019 1019 1019 1019 1019 1019 1019 1019 
1019 1019 1019 1019 1019 1019 1019 1019 1019 
1019 1019 1019 1019 1019 1019 1019 1019 1019 
1019 1019 1019 1019 1019 1019 1019 1019 1019 
1019 1019 1019 1019 1019 1019 1019 1019 1019 
1019 1019 1019 1019 1019 1019 1019 1019 1019 
1019 1019 1019 1019 1019 1019 1019 1019 1019 
1019 1019 1019 1019 1019 1019 1019 1019 1019 
1019 1019 1019 1019 1019 1019 1019 1019 1019 
1019 1019 1019 1019 1019 1019 1019 1019 1019 
1019 1019 1019 1019 1019 1019 1019 1019 1019 
1019 1019 1019 1019 1019 1019 1019 1019 1019 
1019 1019 1019 1019 1019 1019 1019 1019 1019 
1019 1019 1019 1019 1019 1019 1019 1019 1019 
1019 1019 1019 1019 1019 1019 1019 1019 1019 
1019 1019 1019 1019 1019 1019 1019 1019 1019 
1019 1019 1019 1019 1019 1019 1019 1019 1019 
1019 1019 1019 1019 1019 1019 1019 1019 1019 
1019 1019 1019 1019 1019 1019 1019 1019 1019 
1019 1019 1019 1019 1019 1019 1019 1019 1019 
1019 1019 1019 1019 1019 1019 1019 1019 1019 
1019 1019 1019 1019 1019 1019 1019 1019 1019 
1019 1019 1019 1019 1019 1019 1019 1019 1019 
1019 1019 1019 1019 1019 1019 1019 1019 1019 
1019 1019 1019 1019 1019 1019 1019 1019 1019 
1019 1019 1019 1019 1019 1019 1019 1019 1019 
1019 1019 1019 1019 1019 1019 1019 1019 1019 
1019 1019 1019 1019 1019 1019 1019 1019 1019 
1019 1019 1019 1019 1019 1019 1019 1019 1019 
1019 1019 1019 1019 1019 1019 1019 1019 1019 
1019 1019 1019 1019 1019 1019 1019 1019 1019 
1019 1019 1019 1019 1019 1019 1019 1019 1019 
1019 1019 1019 1019 1019 1019 1019 1019 1019 
1019 1019 1019 1019 1019 1019 1019 1019 1019 
1019 1019 1019 1019 1019 1019 1019 1019 1019 
1019 1019 1019 1019 1019 1019 1019 1019 1019 
1019 1019 1019 1019 1019 1019 1019 1019 1019 
1019 1019 1019 1019 1019 1019 1019 1019 1019 
1019 1019 1019 1019 1019 1019 1019 1019 1019 
1019 1019 1019 1019 1019 1019 1019 1019 1019 
1019 1019 1019 1019 1019 1019 1019 1019 1019 
1019 1019 1019 1019 1019 1019 1019 1019 1019 
1019 1019 1019 1019 1019 1019 1019 1019 1019 
1019 1019 1019 1019 1019 1019 1019 1019 1019 
1019 1019 1019 1019 1019 1019 1019 1019 1019 
1019 1019 1019 1019 1019 1019 1019 1019 1019 
1019 1019 1019 1019 1019 1019 1019 1019 1019 
1019 1019 1019 1019 1019 1019 1019 1019 1019 
1019 1019 1019 1019 1019 1019 1019 1019 1019 
1019 1019 1019 1019 1019 1019 1019 1019 1019 
1019 1019 1019 1019 1019 1019 1019 1019 1019 
1019 1019 1019 1019 1019 1019 1019 1019 1019 
1019 1019 1019 1019 1019 1019 1019 1019 1019 
1019 1019 1019 1019 1019 1019 1019 1019 1019 
1019 1019 1019 1019 1019 1019 1019 1019 1019 
1019 1019 1019 1019 1019 1019 1019 1019 1019 
1019 1019 1019 1019 1019 1019 1019 1019 1019 
1019 1019 1019 1019 1019 1019 1019 1019 1019 
1019 1019 1019 1019 1019 1019 1019 1019 1019 
1019 1019 1019 1019 1019 1019 1019 1019 1019 
1019 1019 1019 1019 1019 1019 1019 1019 1019 
1019 1019 1019 1019 1019 1019 1019 1019 1019 
1019 1019 1019 1019 1019 1019 1019 1019 1019 
1019 1019 1019 1019 1019 1019 1019 1019 1019 
1019 1019 1019 1019 1019 1019 1019 1019 1019 
1019 1019 1019 1019 1019 1019 1019 1019 1019 
1019 1019 1019 1019 1019 1019 1019 1019 1019 
1019 1019 1019 1019 1019 1019 1019 1019 1019 
1019 1019 1019 1019 1019 1019 1019 1019 1019 
1019 1019 1019 1019 1019 1019 1019 1019 1019 
1019 1019 1019 1019 1019 1019 1019 1019 1019 
1019 1019 1019 1019 1019 1019 1019 1019 1019 
1019 1019 1019 1019 1019 1019 1019 1019 1019 
1019 1019 1019 1019 1019 1019 1019 1019 1019 
1019 1019 1019 1019 1019 1019 1019 1019 1019 
1019 1019 1019 1019 1019 1019 1019 1019 1019 
1019 1019 1019 1019 1019 1019 1019 1019 1019 
1019 1019 1019 1019 1019 1019 1019 1019 1019 
1019 1019 1019 1019 1019 1019 1019 1019 1019 
1019 1019 1019 1019 1019 1019 1019 1019 1019 
1019 1019 1019 1019 1019 1019 1019 1019 1019 
1019 1019 1019 1019 1019 1019 1019 1019 1019 
1019 1019 1019 1019 1019 1019 1019 1019 1019 
1019 1019 1019 1019 1019 1019 1019 1019 1019 
1019 1019 1019 1019 1019 1019 1019 1019 1019 
1019 1019 1019 1019 1019 1019 1019 1019 1019 
1019 1019 1019 1019 1019 1019 1019 1019 1019 
1019 1019 1019 1019 1019 1019 1019 1019 1019 
1019 1019 1019 1019 1019 1019 1019 1019 1019 
1019 1019 1019 1019 1019 1019 1019 1019 1019 
1019 1019 1019 1019 1019 1019 1019 1019 1019 
1019 1019 1019 1019 1019 1019 1019 1019 1019 
1019 1019 1019 1019 1019 1019 1019 1019 1019 
1019 1019 1019 1019 1019 1019 1019 1019 1019 
1019 1019 1019 1019 1019 1019 1019 1019 1019 
1019 1019 1019 1019 1019 1019 1019 1019 1019 
1019 1019 1019 1019 1019 1019 1019 1019 1019 
1019 1019 1019 1019 1019 1019 1019 1019 1019 
1019 1019 1019 1019 1019 1019 1019 1019 1019 
1019 1019 1019 1019 1019 1019 1019 1019 1019 
1019 1019 1019 1019 1019 1019 1019 1019 1019 
1019 1019 1019 1019 1019 1019 1019 1019 1019 
1019 1019 1019 1019 1019 1019 1019 1019 1019 
1019 1019 1019 1019 1019 1019 1019 1019 1019 
1019 1019 1019 1019 1019 1019 1019 1019 1019 
1019 1019 1019 1019 1019 1019 1019 1019 1019 
1019 1019 1019 1019 1019 1019 1019 1019 1019 
1019 1019 1019 1019 1019 1019 1019 1019 1019 
1019 1019 1019 1019 1019 1019 1019 1019 1019 
1019 1019 1019 1019 1019 1019 1019 1019 1019 
1019 1019 1019 1019 1019 1019 1019 1019 1019 
1019 1019 1019 1019 1019 1019 1019 1019 1019 
1019 1019 1019 1019 1019 1019 1019 1019 1019 
1019 1019 1019 1019 1019 1019 1019 1019 1019 
1019 1019 1019 1019 1019 1019 1019 1019 1019 
1019 1019 1019 1019 1019 1019 1019 1019 1019 
1019 1019 1019 1019 1019 1019 1019 1019 1019 
1019 1019 1019 1019 1019 1019 1019 1019 1019 
1019 1019 1019 1019 1019 1019 1019 1019 1019 
1019 1019 1019 1019 1019 1019 1019 1019 1019 
1019 1019 1019 1019 1019 1019 1019 1019 1019 
1019 1019 1019 1019 1019 1019 1019 1019 1019 
1019 1019 1019 1019 1019 1019 1019 1019 1019 
1019 1019 1019 1019 1019 1019 1019 1019 1019 
1019 1019 1019 1019 1019 1019 1019 1019 1019 
1019 1019 1019 1019 1019 1019 1019 1019 1019 
1019 1019 1019 1019 1019 1019 1019 1019 1019 
1019 1019 1019 1019 1019 1019 1019 1019 1019 
1019 1019 1019 1019 1019 1019 1019 1019 1019 
1019 1019 1019 1019 1019 1019 1019 1019 1019 
1019 1019 1019 1019 1019 1019 1019 1019 1019 
1019 1019 1019 1019 1019 1019 1019 1019 1019 
1019 1019 1019 1019 1019 1019 1019 1019 1019 
1019 1019 1019 1019 1019 1019 1019 1019 1019 
1019 1019 1019 1019 1019 1019 1019 1019 1019 
1019 1019 1019 1019 1019 1019 1019 1019 1019 
1019 1019 1019 1019 1019 1019 1019 1019 1019 
1019 1019 1019 1019 1019 1019 1019 1019 1019 
1019 1019 1019 1019 1019 1019 1019 1019 1019 
1019 1019 1019 1019 1019 1019 1019 1019 1019 
1019 1019 1019 1019 1019 1019 1019 1019 1019 
1019 1019 1019 1019 1019 1019 1019 1019 1019 
1019 1019 1019 1019 1019 1019 1019 1019 1019 
1019 1019 1019 1019 1019 1019 1019 1019 1019 
1019 1019 1019 1019 1019 1019 1019 1019 1019 
1019 1019 1019 1019 1019 1019 1019 1019 1019 
1019 1019 1019 1019 1019 1019 1019 1019 1019 
1019 1019 1019 1019 1019 1019 1019 1019 1019 
1019 1019 1019 1019 1019 1019 1019 1019 1019 
1019 1019 1019 1019 1019 1019 1019 1019 1019 
1019 1019 1019 1019 1019 1019 1019 1019 1019 
1019 1019 1019 1019 1019 1019 1019 1019 1019 
1019 1019 1019 1019 1019 1019 1019 1019 1019 
1019 1019 1019 1019 1019 1019 1019 1019 1019 
1019 1019 1019 1019 1019 1019 1019 1019 1019 
1019 1019 1019 1019 1019 1019 1019 1019 1019 
1019 1019 1019 1019 1019 1019 1019 1019 1019 
1019 1019 1019 1019 1019 1019 1019 1019 1019 
1019 1019 1019 1019 1019 1019 1019 1019 1019 
1019 1019 1019 1019 1019 1019 1019 1019 1019 
1019 1019 1019 1019 1019 1019 1019 1019 1019 
1019 1019 1019 1019 1019 1019 1019 1019 1019 
1019 1019 1019 1019 1019 1019 1019 1019 1019 
1019 1019 1019 1019 1019 1019 1019 1019 1019 
1019 1019 1019 1019 1019 1019 1019 1019 1019 
1019 1019 1019 1019 1019 1019 1019 1019 1019 
1019 1019 1019 1019 1019 1019 1019 1019 1019 
1019 1019 1019 1019 1019 1019 1019 1019 1019 
1019 1019 1019 1019 1019 1019 1019 1019 1019 
1019 1019 1019 1019 1019 1019 1019 1019 1019 
1019 1019 1019 1019 1019 1019 1019 1019 1019 
1019 1019 1019 1019 1019 1019 1019 1019 1019 
1019 1019 1019 1019 1019 1019 1019 1019 1019 
1019 1019 1019 1019 1019 1019 1019 1019 1019 
1019 1019 1019 1019 1019 1019 1019 1019 1019 
1019 1019 1019 1019 1019 1019 1019 1019 1019 
1019 1019 1019 1019 1019 1019 1019 1019 1019 
1019 1019 1019 1019 1019 1019 1019 1019 1019 
1019 1019 1019 1019 1019 1019 1019 1019 1019 
1019 1019 1019 1019 1019 1019 1019 1019 1019 
1019 1019 1019 1019 1019 1019 1019 1019 1019 
1019 1019 1019 1019 1019 1019 1019 1019 1019 
1019 1019 1019 1019 1019 1019 1019 1019 1019 
1019 1019 1019 1019 1019 1019 1019 1019 1019 
1019 1019 1019 1019 1019 1019 1019 1019 1019 
1019 1019 1019 1019 1019 1019 1019 1019 1019 
1019 1019 1019 1019 1019 1019 1019 1019 1019 
1019 1019 1019 1019 1019 1019 1019 1019 1019 
1019 1019 1019 1019 1019 1019 1019 1019 1019 
1019 1019 1019 1019 1019 1019 1019 1019 1019 
1019 1019 1019 1019 1019 1019 1019 1019 1019 
1019 1019 1019 1019 1019 1019 1019 1019 1019 
1019 1019 1019 1019 1019 1019 1019 1019 1019 
1019 1019 1019 1019 1019 1019 1019 1019 1019 
1019 1019 1019 1019 1019 1019 1019 1019 1019 
1019 1019 1019 1019 1019 1019 1019 1019 1019 
1019 1019 1019 1019 1019 1019 1019 1019 1019 
1019 1019 1019 1019 1019 1019 1019 1019 1019 
1019 1019 1019 1019 1019 1019 1019 1019 1019 
1019 1019 1019 1019 1019 1019 1019 1019 1019 
1019 1019 1019 1019 1019 1019 1019 1019 1019 
1019 1019 1019 1019 1019 1019 1019 1019 1019 
1019 1019 1019 1019 1019 1019 1019 1019 1019 
1019 1019 1019 1019 1019 1019 1019 1019 1019 
1019 1019 1019 1019 1019 1019 1019 1019 1019 
1019 1019 1019 1019 1019 1019 1019 1019 1019 
1019 1019 1019 1019 1019 1019 1019 1019 1019 
1019 1019 1019 1019 1019 1019 1019 1019 1019 
1019 1019 1019 1019 1019 1019 1019 1019 1019 
1019 1019 1019 1019 1019 1019 1019 1019 1019 
1019 1019 1019 1019 1019 1019 1019 1019 1019 
1019 1019 1019 1019 1019 1019 1019 1019 1019 
1019 1019 1019 1019 1019 1019 1019 1019 1019 
1019 1019 1019 1019 1019 1019 1019 1019 1019 
1019 1019 1019 1019 1019 1019 1019 1019 1019 
1019 1019 1019 1019 1019 1019 1019 1019 1019 
1019 1019 1019 1019 1019 1019 1019 1019 1019 
1019 1019 1019 1019 1019 1019 1019 1019 1019 
1019 1019 1019 1019 1019 1019 1019 1019 1019 
1019 1019 1019 1019 1019 1019 1019 1019 1019 
1019 1019 1019 1019 1019 1019 1019 1019 1019 
1019 1019 1019 1019 1019 1019 1019 1019 1019 
1019 1019 1019 1019 1019 1019 1019 1019 1019 
1019 1019 1019 1019 1019 1019 1019 1019 1019 
1019 1019 1019 1019 1019 1019 1019 1019 1019 
1019 1019 1019 1019 1019 1019 1019 1019 1019 
1019 1019 1019 1019 1019 1019 1019 1019 1019 
1019 1019 1019 1019 1019 1019 1019 1019 1019 
1019 1019 1019 1019 1019 1019 1019 1019 1019 
1019 1019 1019 1019 1019 1019 1019 1019 1019 
1019 1019 1019 1019 1019 1019 1019 1019 1019 
1019 1019 1019 1019 1019 1019 1019 1019 1019 
1019 1019 1019 1019 1019 1019 1019 1019 1019 
1019 1019 1019 1019 1019 1019 1019 1019 1019 
1019 1019 1019 1019 1019 1019 1019 1019 1019 
1019 1019 1019 1019 1019 1019 1019 1019 1019 
1019 1019 1019 1019 1019 1019 1019 1019 1019 
1019 1019 1019 1019 1019 1019 1019 1019 1019 
1019 1019 1019 1019 1019 1019 1019 1019 1019 
1019 1019 1019 1019 1019 1019 1019 1019 1019 
1019 1019 1019 1019 1019 1019 1019 1019 1019 
1019 1019 1019 1019 1019 1019 1019 1019 1019 
1019 1019 1019 1019 1019 1019 1019 1019 1019 
1019 1019 1019 1019 1019 1019 1019 1019 1019 
1019 1019 1019 1019 1019 1019 1019 1019 1019 
1019 1019 1019 1019 1019 1019 1019 1019 1019 
1019 1019 1019 1019 1019 1019 1019 1019 1019 
1019 1019 1019 1019 1019 1019 1019 1019 1019 
1019 1019 1019 1019 1019 1019 1019 1019 1019 
1019 1019 1019 1019 1019 1019 1019 1019 1019 
1019 1019 1019 1019 1019 1019 1019 1019 1019 
1019 1019 1019 1019 1019 1019 1019 1019 1019 
1019 1019 1019 1019 1019 1019 1019 1019 1019 
1019 1019 1019 1019 1019 1019 1019 1019 1019 
1019 1019 1019 1019 1019 1019 1019 1019 1019 
1019 1019 1019 1019 1019 1019 1019 1019 1019 
1019 1019 1019 1019 1019 1019 1019 1019 1019 
1019 1019 1019 1019 1019 1019 1019 1019 1019 
1019 1019 1019 1019 1019 1019 1019 1019 1019 
1019 1019 1019 1019 1019 1019 1019 1019 1019 
1019 1019 1019 1019 1019 1019 1019 1019 1019 
1019 1019 1019 1019 1019 1019 1019 1019 1019 
1019 1019 1019 1019 1019 1019 1019 1019 1019 
1019 1019 1019 1019 1019 1019 1019 1019 1019 
1019 1019 1019 1019 1019 1019 1019 1019 1019 
1019 1019 1019 1019 1019 1019 1019 1019 1019 
1019 1019 1019 1019 1019 1019 1019 1019 1019 
1019 1019 1019 1019 1019 1019 1019 1019 1019 
1019 1019 1019 1019 1019 1019 1019 1019 1019 
1019 1019 1019 1019 1019 1019 1019 1019 1019 
1019 1019 1019 1019 1019 1019 1019 1019 1019 
1019 1019 1019 1019 1019 1019 1019 1019 1019 
1019 1019 1019 1019 1019 1019 1019 1019 1019 
1019 1019 1019 1019 1019 1019 1019 1019 1019 
1019 1019 1019 1019 1019 1019 1019 1019 1019 
1019 1019 1019 1019 1019 1019 1019 1019 1019 
1019 1019 1019 1019 1019 1019 1019 1019 1019 
1019 1019 1019 1019 1019 1019 1019 1019 1019 
1019 1019 1019 1019 1019 1019 1019 1019 1019 
1019 1019 1019 1019 1019 1019 1019 1019 1019 
1019 1019 1019 1019 1019 1019 1019 1019 1019 
1019 1019 1019 1019 1019 1019 1019 1019 1019 
1019 1019 1019 1019 1019 1019 1019 1019 1019 
1019 1019 1019 1019 1019 1019 1019 1019 1019 
1019 1019 1019 1019 1019 1019 1019 1019 1019 
1019 1019 1019 1019 1019 1019 1019 1019 1019 
1019 1019 1019 1019 1019 1019 1019 1019 1019 
1019 1019 1019 1019 1019 1019 1019 1019 1019 
1019 1019 1019 1019 1019 1019 1019 1019 1019 