# vtk DataFile Version 4.0
vtk output
ASCII
DATASET POLYDATA
POINTS 16362 float
44.0788 28.7866 -27.2444 44.1463 28.2345 -26.6694 44.6138 28.6265 -27.089 
43.5279 28.4005 -26.9211 44.6819 28.8743 -27.9115 45.1612 28.4821 -27.4991 
45.4897 28.5312 -28.2979 43.8382 28.9156 -28.1481 43.4576 28.5745 -27.6186 
45.0242 28.9332 -29.1043 45.7511 28.6026 -29.1225 44.0275 29.0321 -28.9912 
43.2155 28.6076 -28.4114 43.1918 28.7964 -29.0841 42.7203 28.4017 -28.9623 
45.7051 28.8048 -29.9339 46.2163 28.4601 -29.6152 46.3208 28.5137 -30.0587 
44.8574 29.0533 -30.1642 44.0429 29.0699 -30.0214 42.9729 28.8881 -30.0795 
42.459 28.453 -29.7229 46.1267 28.4187 -30.5471 45.5334 28.5478 -31.0579 
45.0543 28.8804 -30.9283 43.9943 29.0806 -31.0464 42.9775 29.0536 -31.0676 
42.0822 28.5427 -30.3884 41.865 28.894 -31.074 40.6776 28.9078 -31.159 
41.2606 28.4851 -30.5362 39.6366 28.9202 -31.1501 40.2177 28.5215 -30.4961 
38.8897 28.8113 -31.2596 39.2269 28.4255 -30.724 38.7014 28.4865 -31.2212 
45.0872 28.4347 -31.5466 44.4479 28.5498 -32.07 44.0211 28.8888 -31.9456 
42.9719 29.0684 -32.0691 41.9859 29.0583 -32.0843 40.9754 29.0641 -32.0504 
40.0902 29.0873 -31.878 39.2432 28.8967 -32.0728 38.7135 28.6596 -31.7725 
44.0658 28.4438 -32.5677 43.4491 28.5526 -33.0752 43.1543 28.8552 -32.8108 
42.2303 28.9197 -32.938 41.2341 28.937 -32.939 40.1536 28.8864 -32.8328 
39.2544 28.1807 -32.9061 38.9069 28.5714 -32.3016 42.9166 28.3956 -33.4659 
41.674 28.5687 -33.5929 40.6702 28.5738 -33.6181 39.9201 28.3709 -33.5956 
45.9334 27.8386 -27.0829 46.0995 27.2007 -26.6368 46.6284 27.596 -27.1247 
45.0891 28.2014 -26.9978 45.0268 27.6657 -26.5793 44.0493 27.2864 -26.3245 
42.7881 28.0436 -27.1822 43.0376 27.5996 -26.54 42.0355 27.742 -27.1733 
42.0587 27.3979 -26.6437 41.5054 27.3437 -26.939 46.6985 27.8387 -27.9115 
47.0493 27.5565 -27.4901 47.4467 27.4455 -28.1724 45.8229 28.1515 -27.7565 
42.7816 28.2225 -28.1993 41.9677 27.8771 -28.0671 41.4321 27.5003 -27.6238 
47.0595 27.8352 -28.8951 47.5857 27.4909 -29.3127 46.2904 28.1866 -28.8372 
41.9917 28.0811 -29.1624 41.0924 27.5955 -28.3209 40.8748 27.8772 -29.0514 
39.9295 27.7763 -29.2639 40.2866 27.5213 -28.6044 39.6235 27.2649 -28.813 
46.8415 28.0131 -29.8272 47.4733 27.4902 -29.9665 41.7779 28.2119 -30.0381 
40.9915 28.1281 -29.8978 39.9399 28.0243 -29.9956 39.5262 27.4196 -29.7418 
47.0535 27.4855 -30.5331 46.0373 28.0174 -31.0571 46.5514 27.4676 -31.0287 
39.4244 27.4462 -30.9867 38.9095 28.1521 -31.0863 46.0019 27.4916 -31.5195 
44.9761 28.0286 -32.0445 45.5078 27.4943 -32.0048 38.9217 28.1542 -31.8327 
39.2247 27.3661 -32.3333 45.0108 27.503 -32.5118 43.977 28.0426 -33.0649 
44.5324 27.5177 -33.0196 39.0098 27.615 -32.8295 38.9532 27.7565 -33.0757 
38.8774 27.4877 -33.0479 44.0146 27.5217 -33.5299 43.0813 27.8544 -33.9584 
43.5265 27.4955 -34.0154 42.0634 28.0386 -34.1744 40.9299 28.1946 -34.2461 
40.0684 28.0594 -34.2515 39.4734 27.5594 -33.8349 39.0636 27.4736 -33.2488 
42.9744 27.361 -34.4325 41.9097 27.6184 -34.7097 41.4527 27.5317 -35.0568 
41.1473 27.8332 -34.8156 40.2678 27.8366 -34.9456 39.7025 27.4699 -34.7534 
40.8548 27.3265 -35.4379 40.0158 27.5279 -35.2702 43.8338 26.7539 -26.03 
44.0658 26.2651 -25.8003 44.3501 26.6071 -26.0249 43.5366 26.1245 -25.9835 
47.1241 27.1559 -27.133 46.9837 26.3309 -26.6232 47.629 26.6297 -27.0939 
45.8639 26.3196 -26.4645 45.0092 26.6428 -26.3239 42.9963 26.5712 -26.3195 
41.9495 26.5662 -26.4477 40.7518 26.954 -27.2853 41.1979 26.6863 -26.6462 
40.4718 26.1523 -26.9589 47.8537 26.8886 -27.7592 48.0379 26.5232 -27.458 
48.4331 26.438 -28.1198 40.7294 27.2872 -27.9943 40.0483 26.4823 -27.4666 
40.0556 27.031 -28.0147 39.5974 26.4547 -28.0847 48.0812 26.988 -28.7748 
48.5778 26.4796 -29.2657 39.3912 26.5328 -28.9676 47.9729 26.9814 -29.8368 
48.3903 26.4136 -30.1262 39.5251 26.4939 -30.1331 47.7807 26.6551 -30.6129 
47.0124 26.9569 -31.0457 47.4534 26.4023 -31.2012 39.8874 26.7981 -30.8447 
40.2406 26.5526 -31.0032 40.1476 26.2402 -30.8042 46.7717 26.6359 -31.5893 
46.0067 26.9618 -31.9994 46.5763 26.3018 -32.07 40.0217 26.5906 -31.3377 
39.6115 26.4052 -32.1361 45.8869 26.4313 -32.4957 45.023 26.9629 -33.0024 
45.4566 26.1002 -33.1662 39.0293 27.2318 -32.8978 39.3005 26.7552 -33.0971 
44.7772 26.6633 -33.5794 44.0295 27.0003 -34.0187 44.543 26.504 -34.008 
39.5006 26.4311 -34.2034 44.0417 26.4797 -34.5241 43.0715 26.8257 -34.9376 
43.4389 26.4111 -35.2017 42.1075 27.1516 -35.112 40.0072 26.9668 -35.1334 
40.1829 26.3924 -35.3165 39.8165 26.3236 -34.8053 42.6889 26.5321 -35.4917 
41.7661 26.7363 -35.7373 41.1071 26.775 -36.0118 41.5642 26.3262 -36.2103 
40.5738 26.6655 -35.8024 41.0443 26.1833 -36.3103 45.7604 25.757 -22.2662 
46.1898 25.4448 -21.7279 46.4569 25.5434 -22.3404 45.5608 25.4496 -21.842 
45.9662 25.7998 -22.8279 46.3515 25.4866 -23.1267 45.1304 25.6016 -22.4149 
45.2866 25.7704 -22.959 44.7024 25.4662 -22.8977 45.6643 25.5409 -23.4786 
44.8816 25.4598 -23.4253 43.9414 25.693 -25.8109 44.4481 25.8429 -25.9767 
43.6158 25.3623 -26.0818 48.0926 26.1398 -27.1368 47.955 25.3445 -26.631 
48.6455 25.6168 -27.1191 46.8158 25.3503 -26.5036 45.9712 25.4614 -26.5169 
44.9283 25.4189 -26.3792 42.932 25.3313 -26.3893 42.0633 25.683 -26.4923 
41.1483 25.6524 -26.6467 40.5515 25.3642 -27.0233 48.8464 25.8749 -27.7877 
49.218 25.4488 -27.5474 49.4792 25.4916 -28.2978 39.9911 25.5916 -27.4445 
39.4985 25.4945 -28.1033 49.04 25.9901 -28.7692 49.5552 25.5063 -29.2843 
39.3701 25.4872 -28.9807 48.9371 25.9953 -29.9507 49.5253 25.5049 -30.2966 
43.6907 25.8326 -30.0159 44.3689 25.5753 -29.8959 44.2307 25.3308 -29.6024 
43.3088 25.5239 -29.7126 42.749 25.8879 -30.2348 42.7051 25.4085 -30.0155 
39.4006 25.3628 -29.8453 48.9023 25.806 -30.9896 49.4311 25.5015 -30.9619 
48.1502 26.1429 -30.9786 44.1467 25.4775 -30.4556 43.0192 25.9226 -30.8928 
43.5414 25.5762 -31.0292 42.1435 25.4312 -30.4136 41.8386 25.977 -31.0074 
41.1419 25.6282 -30.7571 40.6876 26.1835 -31.1988 39.9492 25.8775 -31.0532 
40.4635 25.5531 -31.0589 39.6139 25.6104 -30.7381 49.1332 25.3947 -31.5456 
48.531 25.4803 -32.0624 48.2434 25.7908 -31.7791 47.358 26.0161 -31.8516 
43.103 25.456 -31.5723 42.1764 25.8711 -31.7795 42.5436 25.405 -32.1503 
41.2161 25.9039 -31.8892 39.9698 25.2614 -31.3074 40.2938 25.9897 -31.9399 
47.9389 25.3347 -32.4403 46.7075 25.6368 -32.5048 45.9876 25.6712 -32.7502 
45.7577 25.4332 -33.2142 41.8939 25.4048 -32.363 40.8394 25.3722 -32.5375 
39.9536 25.6148 -32.5241 39.5844 25.6626 -33.2085 44.9601 26.1013 -33.9239 
45.4458 25.5915 -33.7316 39.5146 25.2427 -34.2339 45.0412 25.5279 -34.5323 
44.0695 26.023 -35.2193 44.5722 25.6172 -35.3349 39.9897 25.8949 -35.1911 
39.6072 25.6207 -34.7832 44.0648 25.7876 -35.8297 44.3793 25.3186 -35.8306 
43.3213 25.9998 -35.8911 42.3244 26.0833 -36.1039 40.5139 25.8402 -35.8992 
40.0982 25.1273 -35.4855 43.7257 25.4477 -36.3093 42.8929 25.5259 -36.4437 
41.8385 25.4275 -36.603 41.0512 25.6032 -36.4022 44.9379 24.7936 -19.289 
44.9857 24.2713 -18.5625 45.6173 24.5922 -19.1307 44.4597 24.3802 -18.8553 
45.8459 24.8475 -20.032 46.1898 24.463 -19.549 46.6407 24.5557 -20.1257 
44.866 25.0065 -20.1148 44.2102 24.6028 -19.355 43.9956 24.8668 -20.0853 
43.6178 24.4831 -19.8094 47.9114 24.8438 -21.2314 48.0141 24.5112 -20.6701 
48.5857 24.528 -21.0321 46.868 24.8509 -20.7745 47.3876 24.4951 -20.4555 
45.9677 25.1119 -21.2103 44.9909 25.0179 -20.9678 43.9788 25.0321 -20.9793 
43.1709 24.6097 -20.4362 42.9039 24.8707 -21.1396 42.5502 24.4787 -20.8788 
48.751 24.8864 -21.9954 49.1825 24.4063 -21.4215 49.3913 24.4125 -22.091 
47.889 25.0579 -22.1825 47.0001 25.1431 -21.7146 44.8595 25.2007 -22.0597 
43.9401 25.0456 -22.0038 42.9398 25.0597 -22.0211 41.8778 24.3886 -21.422 
42.0688 24.8523 -22.1206 41.4384 24.3296 -22.1689 48.9238 24.8544 -22.9766 
49.3961 24.2104 -23.1127 48.0713 25.0551 -23.0486 47.0689 25.1765 -22.9329 
44.1013 25.1241 -23.2008 43.1034 25.0557 -22.8693 42.2877 24.8903 -23.0856 
41.657 24.437 -22.9611 48.9014 24.6311 -23.6374 48.5403 24.5658 -24.0703 
48.2609 24.8519 -23.8093 47.3065 24.8987 -23.9304 46.2657 25.0427 -23.9059 
45.0693 25.0342 -23.9687 44.1211 24.8674 -24.0548 43.1249 24.8568 -23.8145 
42.3497 24.3603 -24.0901 41.8946 24.3754 -23.6291 47.9563 24.386 -24.483 
46.7482 24.5175 -24.5834 45.7489 24.5148 -24.5554 44.7305 24.5045 -24.5437 
43.7117 24.5081 -24.5338 42.9485 24.382 -24.5144 44.137 25.2095 -26.0792 
49.8033 24.7988 -26.9338 49.8745 24.1901 -26.6643 50.3042 24.5262 -27.1829 
49.1367 25.1781 -27.0109 48.8841 24.5229 -26.588 47.8064 24.3329 -26.5045 
46.9559 24.4591 -26.5091 45.9705 24.4545 -26.5492 44.9543 24.4114 -26.5602 
43.8875 24.667 -26.4178 43.1123 24.1972 -26.4182 42.0189 24.5914 -26.6641 
41.0754 24.8851 -26.9368 41.4056 24.4714 -27.0505 49.8935 25.0161 -27.6766 
50.5524 24.4168 -28.0952 40.8339 24.4831 -27.4273 39.9003 24.7141 -27.7144 
39.5853 24.4084 -28.3272 50.0437 24.9904 -28.7468 50.5646 24.4941 -29.2671 
39.4 24.6207 -29.1697 50.0524 24.9933 -29.7814 50.5397 24.4699 -30.2758 
44.8253 25.0303 -29.9332 45.3203 24.2309 -30.2255 44.9404 24.4409 -29.6461 
43.9712 24.6575 -29.61 43.1202 24.9876 -29.8609 43.5194 24.3721 -30.0031 
39.5368 24.3839 -30.1868 49.9218 24.9995 -30.8141 50.3572 24.4175 -31.1128 
44.8164 24.6924 -30.5592 44.0376 25.04 -31.0427 44.5416 24.5103 -31.0253 
42.846 24.576 -30.2864 41.9431 24.6422 -30.661 41.1338 24.982 -30.9416 
41.4838 24.5127 -31.0051 39.5941 24.716 -31.0766 49.7749 24.6829 -31.6157 
48.9916 25.0002 -32.0893 49.4495 24.4402 -32.2212 44.0198 24.5013 -31.5721 
43.1272 24.9586 -32.0266 43.5617 24.3564 -32.1258 40.847 24.4116 -31.4736 
39.9215 24.373 -31.4225 48.7435 24.6743 -32.622 48.05 24.8037 -32.9679 
48.5018 24.4906 -33.0272 47.0741 24.9674 -33.1272 46.2276 25.2167 -33.0063 
42.8577 24.5948 -32.3994 41.9077 24.6212 -32.7109 40.8981 24.8353 -33.0768 
41.5031 24.4848 -33.0218 40.1501 25.1937 -33.0034 47.973 24.3495 -33.4409 
46.9499 24.5681 -33.6977 46.6108 24.3521 -34.0972 46.0666 24.9768 -33.7568 
[...]
CELL_DATA 32768
SCALARS scalars float
LOOKUP_TABLE default
2030 2030 2030 2030 2030 2030 2030 2030 2030 
2030 2030 2030 2030 2030 2030 2030 2030 2030 
2030 2030 2030 2030 2030 2030 2030 2030 2030 
2030 2030 2030 2030 2030 2030 2030 2030 2030 
2030 2030 2030 2030 2030 2030 2030 2030 2030 
2030 2030 2030 2030 2030 2030 2030 2030 2030 
2030 2030 2030 2030 2030 2030 2030 2030 2030 
2030 2030 2030 2030 2030 2030 2030 2030 2030 
2030 2030 2030 2030 2030 2030 2030 2030 2030 
2030 2030 2030 2030 2030 2030 2030 2030 2030 
2030 2030 2030 2030 2030 2030 2030 2030 2030 
2030 2030 2030 2030 2030 2030 2030 2030 2030 
2030 2030 2030 2030 2030 2030 2030 2030 2030 
2030 2030 2030 2030 2030 2030 2030 2030 2030 
2030 2030 2030 2030 2030 2030 2030 2030 2030 
2030 2030 2030 2030 2030 2030 2030 2030 2030 
2030 2030 2030 2030 2030 2030 2030 2030 2030 
2030 2030 2030 2030 2030 2030 2030 2030 2030 
2030 2030 2030 2030 2030 2030 2030 2030 2030 
2030 2030 2030 2030 2030 2030 2030 2030 2030 
2030 2030 2030 2030 2030 2030 2030 2030 2030 
2030 2030 2030 2030 2030 2030 2030 2030 2030 
2030 2030 2030 2030 2030 2030 2030 2030 2030 
2030 2030 2030 2030 2030 2030 2030 2030 2030 
2030 2030 2030 2030 2030 2030 2030 2030 2030 
2030 2030 2030 2030 2030 2030 2030 2030 2030 
2030 2030 2030 2030 2030 2030 2030 2030 2030 
2030 2030 2030 2030 2030 2030 2030 2030 2030 
2030 2030 2030 2030 2030 2030 2030 2030 2030 
2030 2030 2030 2030 2030 2030 2030 2030 2030 
2030 2030 2030 2030 2030 2030 2030 2030 2030 
2030 2030 2030 2030 2030 2030 2030 2030 2030 
2030 2030 2030 2030 2030 2030 2030 2030 2030 
2030 2030 2030 2030 2030 2030 2030 2030 2030 
2030 2030 2030 2030 2030 2030 2030 2030 2030 
2030 2030 2030 2030 2030 2030 2030 2030 2030 
2030 2030 2030 2030 2030 2030 2030 2030 2030 
2030 2030 2030 2030 2030 2030 2030 2030 2030 
2030 2030 2030 2030 2030 2030 2030 2030 2030 
2030 2030 2030 2030 2030 2030 2030 2030 2030 
2030 2030 2030 2030 2030 2030 2030 2030 2030 
2030 2030 2030 2030 2030 2030 2030 2030 2030 
2030 2030 2030 2030 2030 2030 2030 2030 2030 
2030 2030 2030 2030 2030 2030 2030 2030 2030 
2030 2030 2030 2030 2030 2030 2030 2030 2030 
2030 2030 2030 2030 2030 2030 2030 2030 2030 
2030 2030 2030 2030 2030 2030 2030 2030 2030 
2030 2030 2030 2030 2030 2030 2030 2030 2030 
2030 2030 2030 2030 2030 2030 2030 2030 2030 
2030 2030 2030 2030 2030 2030 2030 2030 2030 
2030 2030 2030 2030 2030 2030 2030 2030 2030 
2030 2030 2030 2030 2030 2030 2030 2030 2030 
2030 2030 2030 2030 2030 2030 2030 2030 2030 
2030 2030 2030 2030 2030 2030 2030 2030 2030 
2030 2030 2030 2030 2030 2030 2030 2030 2030 
2030 2030 2030 2030 2030 2030 2030 2030 2030 
2030 2030 2030 2030 2030 2030 2030 2030 2030 
2030 2030 2030 2030 2030 2030 2030 2030 2030 
2030 2030 2030 2030 2030 2030 2030 2030 2030 
2030 2030 2030 2030 2030 2030 2030 2030 2030 
2030 2030 2030 2030 2030 2030 2030 2030 2030 
2030 2030 2030 2030 2030 2030 2030 2030 2030 
2030 2030 2030 2030 2030 2030 2030 2030 2030 
2030 2030 2030 2030 2030 2030 2030 2030 2030 
2030 2030 2030 2030 2030 2030 2030 2030 2030 
2030 2030 2030 2030 2030 2030 2030 2030 2030 
2030 2030 2030 2030 2030 2030 2030 2030 2030 
2030 2030 2030 2030 2030 2030 2030 2030 2030 
2030 2030 2030 2030 2030 2030 2030 2030 2030 
2030 2030 2030 2030 2030 2030 2030 2030 2030 
2030 2030 2030 2030 2030 2030 2030 2030 2030 
2030 2030 2030 2030 2030 2030 2030 2030 2030 
2030 2030 2030 2030 2030 2030 2030 2030 2030 
2030 2030 2030 2030 2030 2030 2030 2030 2030 
2030 2030 2030 2030 2030 2030 2030 2030 2030 
2030 2030 2030 2030 2030 2030 2030 2030 2030 
2030 2030 2030 2030 2030 2030 2030 2030 2030 
2030 2030 2030 2030 2030 2030 2030 2030 2030 
2030 2030 2030 2030 2030 2030 2030 2030 2030 
2030 2030 2030 2030 2030 2030 2030 2030 2030 
2030 2030 2030 2030 2030 2030 2030 2030 2030 
2030 2030 2030 2030 2030 2030 2030 2030 2030 
2030 2030 2030 2030 2030 2030 2030 2030 2030 
2030 2030 2030 2030 2030 2030 2030 2030 2030 
2030 2030 2030 2030 2030 2030 2030 2030 2030 
2030 2030 2030 2030 2030 2030 2030 2030 2030 
2030 2030 2030 2030 2030 2030 2030 2030 2030 
2030 2030 2030 2030 2030 2030 2030 2030 2030 
2030 2030 2030 2030 2030 2030 2030 2030 2030 
2030 2030 2030 2030 2030 2030 2030 2030 2030 
2030 2030 2030 2030 2030 2030 2030 2030 2030 
2030 2030 2030 2030 2030 2030 2030 2030 2030 
2030 2030 2030 2030 2030 2030 2030 2030 2030 
2030 2030 2030 2030 2030 2030 2030 2030 2030 
2030 2030 2030 2030 2030 2030 2030 2030 2030 
2030 2030 2030 2030 2030 2030 2030 2030 2030 
2030 2030 2030 2030 2030 2030 2030 2030 2030 
2030 2030 2030 2030 2030 2030 2030 2030 2030 
2030 2030 2030 2030 2030 2030 2030 2030 2030 
2030 2030 2030 2030 2030 2030 2030 2030 2030 
2030 2030 2030 2030 2030 2030 2030 2030 2030 
2030 2030 2030 2030 2030 2030 2030 2030 2030 
2030 2030 2030 2030 2030 2030 2030 2030 2030 
2030 2030 2030 2030 2030 2030 2030 2030 2030 
2030 2030 2030 2030 2030 2030 2030 2030 2030 
2030 2030 2030 2030 2030 2030 2030 2030 2030 
2030 2030 2030 2030 2030 2030 2030 2030 2030 
2030 2030 2030 2030 2030 2030 2030 2030 2030 
2030 2030 2030 2030 2030 2030 2030 2030 2030 
2030 2030 2030 2030 2030 2030 2030 2030 2030 
2030 2030 2030 2030 2030 2030 2030 2030 2030 
2030 2030 2030 2030 2030 2030 2030 2030 2030 
2030 2030 2030 2030 2030 2030 2030 2030 2030 
2030 2030 2030 2030 2030 2030 2030 2030 2030 
2030 2030 2030 2030 2030 2030 2030 2030 2030 
2030 2030 2030 2030 2030 2030 2030 2030 2030 
2030 2030 2030 2030 2030 2030 2030 2030 2030 
2030 2030 2030 2030 2030 2030 2030 2030 2030 
2030 2030 2030 2030 2030 2030 2030 2030 2030 
2030 2030 2030 2030 2030 2030 2030 2030 2030 
2030 2030 2030 2030 2030 2030 2030 2030 2030 
2030 2030 2030 2030 2030 2030 2030 2030 2030 
2030 2030 2030 2030 2030 2030 2030 2030 2030 
2030 2030 2030 2030 2030 2030 2030 2030 2030 
2030 2030 2030 2030 2030 2030 2030 2030 2030 
2030 2030 2030 2030 2030 2030 2030 2030 2030 
2030 2030 2030 2030 2030 2030 2030 2030 2030 
2030 2030 2030 2030 2030 2030 2030 2030 2030 
2030 2030 2030 2030 2030 2030 2030 2030 2030 
2030 2030 2030 2030 2030 2030 2030 2030 2030 
2030 2030 2030 2030 2030 2030 2030 2030 2030 
2030 2030 2030 2030 2030 2030 2030 2030 2030 
2030 2030 2030 2030 2030 2030 2030 2030 2030 
2030 2030 2030 2030 2030 2030 2030 2030 2030 
2030 2030 2030 2030 2030 2030 2030 2030 2030 
2030 2030 2030 2030 2030 2030 2030 2030 2030 
2030 2030 2030 2030 2030 2030 2030 2030 2030 
2030 2030 2030 2030 2030 2030 2030 2030 2030 
2030 2030 2030 2030 2030 2030 2030 2030 2030 
2030 2030 2030 2030 2030 2030 2030 2030 2030 
2030 2030 2030 2030 2030 2030 2030 2030 2030 
2030 2030 2030 2030 2030 2030 2030 2030 2030 
2030 2030 2030 2030 2030 2030 2030 2030 2030 
2030 2030 2030 2030 2030 2030 2030 2030 2030 
2030 2030 2030 2030 2030 2030 2030 2030 2030 
2030 2030 2030 2030 2030 2030 2030 2030 2030 
2030 2030 2030 2030 2030 2030 2030 2030 2030 
2030 2030 2030 2030 2030 2030 2030 2030 2030 
2030 2030 2030 2030 2030 2030 2030 2030 2030 
2030 2030 2030 2030 2030 2030 2030 2030 2030 
2030 2030 2030 2030 2030 2030 2030 2030 2030 
2030 2030 2030 2030 2030 2030 2030 2030 2030 
2030 2030 2030 2030 2030 2030 2030 2030 2030 
2030 2030 2030 2030 2030 2030 2030 2030 2030 
2030 2030 2030 2030 2030 2030 2030 2030 2030 
2030 2030 2030 2030 2030 2030 2030 2030 2030 
2030 2030 2030 2030 2030 2030 2030 2030 2030 
2030 2030 2030 2030 2030 2030 2030 2030 2030 
2030 2030 2030 2030 2030 2030 2030 2030 2030 
2030 2030 2030 2030 2030 2030 2030 2030 2030 
2030 2030 2030 2030 2030 2030 2030 2030 2030 
2030 2030 2030 2030 2030 2030 2030 2030 2030 
2030 2030 2030 2030 2030 2030 2030 2030 2030 
2030 2030 2030 2030 2030 2030 2030 2030 2030 
2030 2030 2030 2030 2030 2030 2030 2030 2030 
2030 2030 2030 2030 2030 2030 2030 2030 2030 
2030 2030 2030 2030 2030 2030 2030 2030 2030 
2030 2030 2030 2030 2030 2030 2030 2030 2030 
2030 2030 2030 2030 2030 2030 2030 2030 2030 
2030 2030 2030 2030 2030 2030 2030 2030 2030 
2030 2030 2030 2030 2030 2030 2030 2030 2030 
2030 2030 2030 2030 2030 2030 2030 2030 2030 
2030 2030 2030 2030 2030 2030 2030 2030 2030 
2030 2030 2030 2030 2030 2030 2030 2030 2030 
2030 2030 2030 2030 2030 2030 2030 2030 2030 
2030 2030 2030 2030 2030 2030 2030 2030 2030 
2030 2030 2030 2030 2030 2030 2030 2030 2030 
2030 2030 2030 2030 2030 2030 2030 2030 2030 
2030 2030 2030 2030 2030 2030 2030 2030 2030 
2030 2030 2030 2030 2030 2030 2030 2030 2030 
2030 2030 2030 2030 2030 2030 2030 2030 2030 
2030 2030 2030 2030 2030 2030 2030 2030 2030 
2030 2030 2030 2030 2030 2030 2030 2030 2030 
2030 2030 2030 2030 2030 2030 2030 2030 2030 
2030 2030 2030 2030 2030 2030 2030 2030 2030 
2030 2030 2030 2030 2030 2030 2030 2030 2030 
2030 2030 2030 2030 2030 2030 2030 2030 2030 
2030 2030 2030 2030 2030 2030 2030 2030 2030 
2030 2030 2030 2030 2030 2030 2030 2030 2030 
2030 2030 2030 2030 2030 2030 2030 2030 2030 
2030 2030 2030 2030 2030 2030 2030 2030 2030 
2030 2030 2030 2030 2030 2030 2030 2030 2030 
2030 2030 2030 2030 2030 2030 2030 2030 2030 
2030 2030 2030 2030 2030 2030 2030 2030 2030 
2030 2030 2030 2030 2030 2030 2030 2030 2030 
2030 2030 2030 2030 2030 2030 2030 2030 2030 
2030 2030 2030 2030 2030 2030 2030 2030 2030 
2030 2030 2030 2030 2030 2030 2030 2030 2030 
2030 2030 2030 2030 2030 2030 2030 2030 2030 
2030 2030 2030 2030 2030 2030 2030 2030 2030 
2030 2030 2030 2030 2030 2030 2030 2030 2030 
2030 2030 2030 2030 2030 2030 2030 2030 2030 
2030 2030 2030 2030 2030 2030 2030 2030 2030 
2030 2030 2030 2030 2030 2030 2030 2030 2030 
2030 2030 2030 2030 2030 2030 2030 2030 2030 
2030 2030 2030 2030 2030 2030 2030 2030 2030 
2030 2030 2030 2030 2030 2030 2030 2030 2030 
2030 2030 2030 2030 2030 2030 2030 2030 2030 
2030 2030 2030 2030 2030 2030 2030 2030 2030 
2030 2030 2030 2030 2030 2030 2030 2030 2030 
2030 2030 2030 2030 2030 2030 2030 2030 2030 
2030 2030 2030 2030 2030 2030 2030 2030 2030 
2030 2030 2030 2030 2030 2030 2030 2030 2030 
2030 2030 2030 2030 2030 2030 2030 2030 2030 
2030 2030 2030 2030 2030 2030 2030 2030 2030 
2030 2030 2030 2030 2030 2030 2030 2030 2030 
2030 2030 2030 2030 2030 2030 2030 2030 2030 
2030 2030 2030 2030 2030 2030 2030 2030 2030 
2030 2030 2030 2030 2030 2030 2030 2030 2030 
2030 2030 2030 2030 2030 2030 2030 2030 2030 
2030 2030 2030 2030 2030 2030 2030 2030 2030 
2030 2030 2030 2030 2030 2030 2030 2030 2030 
2030 2030 2030 2030 2030 2030 2030 2030 2030 
2030 2030 2030 2030 2030 2030 2030 2030 2030 
2030 2030 2030 2030 2030 2030 2030 2030 2030 
2030 2030 2030 2030 2030 2030 2030 2030 2030 
2030 2030 2030 2030 2030 2030 2030 2030 2030 
2030 2030 2030 2030 2030 2030 2030 2030 2030 
2030 2030 2030 2030 2030 2030 2030 2030 2030 
2030 2030 2030 2030 2030 2030 2030 2030 2030 
2030 2030 2030 2030 2030 2030 2030 2030 2030 
2030 2030 2030 2030 2030 2030 2030 2030 2030 
2030 2030 2030 2030 2030 2030 2030 2030 2030 
2030 2030 2030 2030 2030 2030 2030 2030 2030 
2030 2030 2030 2030 2030 2030 2030 2030 2030 
2030 2030 2030 2030 2030 2030 2030 2030 2030 
2030 2030 2030 2030 2030 2030 2030 2030 2030 
2030 2030 2030 2030 2030 2030 2030 2030 2030 
2030 2030 2030 2030 2030 2030 2030 2030 2030 
2030 2030 2030 2030 2030 2030 2030 2030 2030 
2030 2030 2030 2030 2030 2030 2030 2030 2030 
2030 2030 2030 2030 2030 2030 2030 2030 2030 
2030 2030 2030 2030 2030 2030 2030 2030 2030 
2030 2030 2030 2030 2030 2030 2030 2030 2030 
2030 2030 2030 2030 2030 2030 2030 2030 2030 
2030 2030 2030 2030 2030 2030 2030 2030 2030 
2030 2030 2030 2030 2030 2030 2030 2030 2030 
2030 2030 2030 2030 2030 2030 2030 2030 2030 
2030 2030 2030 2030 2030 2030 2030 2030 2030 
2030 2030 2030 2030 2030 2030 2030 2030 2030 
2030 2030 2030 2030 2030 2030 2030 2030 2030 
2030 2030 2030 2030 2030 2030 2030 2030 2030 
2030 2030 2030 2030 2030 2030 2030 2030 2030 
2030 2030 2030 2030 2030 2030 2030 2030 2030 
2030 2030 2030 2030 2030 2030 2030 2030 2030 
2030 2030 2030 2030 2030 2030 2030 2030 2030 
2030 2030 2030 2030 2030 2030 2030 2030 2030 
2030 2030 2030 2030 2030 2030 2030 2030 2030 
2030 2030 2030 2030 2030 2030 2030 2030 2030 
2030 2030 2030 2030 2030 2030 2030 2030 2030 
2030 2030 2030 2030 2030 2030 2030 2030 2030 
2030 2030 2030 2030 2030 2030 2030 2030 2030 
2030 2030 2030 2030 2030 2030 2030 2030 2030 
2030 2030 2030 2030 2030 2030 2030 2030 2030 
2030 2030 2030 2030 2030 2030 2030 2030 2030 
2030 2030 2030 2030 2030 2030 2030 2030 2030 
2030 2030 2030 2030 2030 2030 2030 2030 2030 
2030 2030 2030 2030 2030 2030 2030 2030 2030 
2030 2030 2030 2030 2030 2030 2030 2030 2030 
2030 2030 2030 2030 2030 2030 2030 2030 2030 
2030 2030 2030 2030 2030 2030 2030 2030 2030 
2030 2030 2030 2030 2030 2030 2030 2030 2030 
2030 2030 2030 2030 2030 2030 2030 2030 2030 
2030 2030 2030 2030 2030 2030 2030 2030 2030 
2030 2030 2030 2030 2030 2030 2030 2030 2030 
2030 2030 2030 2030 2030 2030 2030 2030 2030 
2030 2030 2030 2030 2030 2030 2030 2030 2030 
2030 2030 2030 2030 2030 2030 2030 2030 2030 
2030 2030 2030 2030 2030 2030 2030 2030 2030 
2030 2030 2030 2030 2030 2030 2030 2030 2030 
2030 2030 2030 2030 2030 2030 2030 2030 2030 
2030 2030 2030 2030 2030 2030 2030 2030 2030 
2030 2030 2030 2030 2030 2030 2030 2030 2030 
2030 2030 2030 2030 2030 2030 2030 2030 2030 
2030 2030 2030 2030 2030 2030 2030 2030 2030 
2030 2030 2030 2030 2030 2030 2030 2030 2030 
2030 2030 2030 2030 2030 2030 2030 2030 2030 
2030 2030 2030 2030 2030 2030 2030 2030 2030 
2030 2030 2030 2030 2030 2030 2030 2030 2030 
2030 2030 2030 2030 2030 2030 2030 2030 2030 
2030 2030 2030 2030 2030 2030 2030 2030 2030 
2030 2030 2030 2030 2030 2030 2030 2030 2030 
2030 2030 2030 2030 2030 2030 2030 2030 2030 
2030 2030 2030 2030 2030 2030 2030 2030 2030 
2030 2030 2030 2030 2030 2030 2030 2030 2030 
2030 2030 2030 2030 2030 2030 2030 2030 2030 
2030 2030 2030 2030 2030 2030 2030 2030 2030 
2030 2030 2030 2030 2030 2030 2030 2030 2030 
2030 2030 2030 2030 2030 2030 2030 2030 2030 
2030 2030 2030 2030 2030 2030 2030 2030 2030 
2030 2030 2030 2030 2030 2030 2030 2030 2030 
2030 2030 2030 2030 2030 2030 2030 2030 2030 
2030 2030 2030 2030 2030 2030 2030 2030 2030 
2030 2030 2030 2030 2030 2030 2030 2030 2030 
2030 2030 2030 2030 2030 2030 2030 2030 2030 
2030 2030 2030 2030 2030 2030 2030 2030 2030 
2030 2030 2030 2030 2030 2030 2030 2030 2030 
2030 2030 2030 2030 2030 2030 2030 2030 2030 
2030 2030 2030 2030 2030 2030 2030 2030 2030 
2030 2030 2030 2030 2030 2030 2030 2030 2030 
2030 2030 2030 2030 2030 2030 2030 2030 2030 
2030 2030 2030 2030 2030 2030 2030 2030 2030 
2030 2030 2030 2030 2030 2030 2030 2030 2030 
2030 2030 2030 2030 2030 2030 2030 2030 2030 
2030 2030 2030 2030 2030 2030 2030 2030 2030 
2030 2030 2030 2030 2030 2030 2030 2030 2030 
2030 2030 2030 2030 2030 2030 2030 2030 2030 
2030 2030 2030 2030 2030 2030 2030 2030 2030 
2030 2030 2030 2030 2030 2030 2030 2030 2030 
2030 2030 2030 2030 2030 2030 2030 2030 2030 
2030 2030 2030 2030 2030 2030 2030 2030 2030 
2030 2030 2030 2030 2030 2030 2030 2030 2030 
2030 2030 2030 2030 2030 2030 2030 2030 2030 
2030 2030 2030 2030 2030 2030 2030 2030 2030 
2030 2030 2030 2030 2030 2030 2030 2030 2030 
2030 2030 2030 2030 2030 2030 2030 2030 2030 
2030 2030 2030 2030 2030 2030 2030 2030 2030 
2030 2030 2030 2030 2030 2030 2030 2030 2030 
2030 2030 2030 2030 2030 2030 2030 2030 2030 
2030 2030 2030 2030 2030 2030 2030 2030 2030 
2030 2030 2030 2030 2030 2030 2030 2030 2030 
2030 2030 2030 2030 2030 2030 2030 2030 2030 
2030 2030 2030 2030 2030 2030 2030 2030 2030 
2030 2030 2030 2030 2030 2030 2030 2030 2030 
2030 2030 2030 2030 2030 2030 2030 2030 2030 
2030 2030 2030 2030 2030 2030 2030 2030 2030 
2030 2030 2030 2030 2030 2030 2030 2030 2030 
2030 2030 2030 2030 2030 2030 2030 2030 2030 
2030 2030 2030 2030 2030 2030 2030 2030 2030 
2030 2030 2030 2030 2030 2030 2030 2030 2030 
2030 2030 2030 2030 2030 2030 2030 2030 2030 
2030 2030 2030 2030 2030 2030 2030 2030 2030 
2030 2030 2030 2030 2030 2030 2030 2030 2030 
2030 2030 2030 2030 2030 2030 2030 2030 2030 
2030 2030 2030 2030 2030 2030 2030 2030 2030 
2030 2030 2030 2030 2030 2030 2030 2030 2030 
2030 2030 2030 2030 2030 2030 2030 2030 2030 
2030 2030 2030 2030 2030 2030 2030 2030 2030 
2030 2030 2030 2030 2030 2030 2030 2030 2030 
2030 2030 2030 2030 2030 2030 2030 2030 2030 
2030 2030 2030 2030 2030 2030 2030 2030 2030 
2030 2030 2030 2030 2030 2030 2030 2030 2030 
2030 2030 2030 2030 2030 2030 2030 2030 2030 
2030 2030 2030 2030 2030 2030 2030 2030 2030 
2030 2030 2030 2030 2030 2030 2030 2030 2030 
2030 2030 2030 2030 2030 2030 2030 2030 2030 
2030 2030 2030 2030 2030 2030 2030 2030 2030 
2030 2030 2030 2030 2030 2030 2030 2030 2030 
2030 2030 2030 2030 2030 2030 2030 2030 2030 
2030 2030 2030 2030 2030 2030 2030 2030 2030 
2030 2030 2030 2030 2030 2030 2030 2030 2030 
2030 2030 2030 2030 2030 2030 2030 2030 2030 
2030 2030 2030 2030 2030 2030 2030 2030 2030 
2030 2030 2030 2030 2030 2030 2030 2030 2030 
2030 2030 2030 2030 2030 2030 2030 2030 2030 
2030 2030 2030 2030 2030 2030 2030 2030 2030 
2030 2030 2030 2030 2030 2030 2030 2030 2030 
2030 2030 2030 2030 2030 2030 2030 2030 2030 
2030 2030 2030 2030 2030 2030 2030 2030 2030 
2030 2030 2030 2030 2030 2030 2030 2030 2030 
2030 2030 2030 2030 2030 2030 2030 2030 2030 
2030 2030 2030 2030 2030 2030 2030 2030 2030 
2030 2030 2030 2030 2030 2030 2030 2030 2030 
2030 2030 2030 2030 2030 2030 2030 2030 2030 
2030 2030 2030 2030 2030 2030 2030 2030 2030 
2030 2030 2030 2030 2030 2030 2030 2030 2030 
2030 2030 2030 2030 2030 2030 2030 2030 2030 
2030 2030 2030 2030 2030 2030 2030 2030 2030 
2030 2030 2030 2030 2030 2030 2030 2030 2030 
2030 2030 2030 2030 2030 2030 2030 2030 2030 
2030 2030 2030 2030 2030 2030 2030 2030 2030 
2030 2030 2030 2030 2030 2030 2030 2030 2030 
2030 2030 2030 2030 2030 2030 2030 2030 2030 
2030 2030 2030 2030 2030 2030 2030 2030 2030 
2030 2030 2030 2030 2030 2030 2030 2030 2030 
2030 2030 2030 2030 2030 2030 2030 2030 2030 
2030 2030 2030 2030 2030 2030 2030 2030 2030 
2030 2030 2030 2030 2030 2030 2030 2030 2030 
2030 2030 2030 2030 2030 2030 2030 2030 2030 
2030 2030 2030 2030 2030 2030 2030 2030 2030 
2030 2030 2030 2030 2030 2030 2030 2030 2030 
2030 2030 2030 2030 2030 2030 2030 2030 2030 
2030 2030 2030 2030 2030 2030 2030 2030 2030 
2030 2030 2030 2030 2030 2030 2030 2030 2030 
2030 2030 2030 2030 2030 2030 2030 2030 2030 
2030 2030 2030 2030 2030 2030 2030 2030 2030 
2030 2030 2030 2030 2030 2030 2030 2030 2030 
2030 2030 2030 2030 2030 2030 2030 2030 2030 
2030 2030 2030 2030 2030 2030 2030 2030 2030 
2030 2030 2030 2030 2030 2030 2030 2030 2030 
2030 2030 2030 2030 2030 2030 2030 2030 2030 
2030 2030 2030 2030 2030 2030 2030 2030 2030 
2030 2030 2030 2030 2030 2030 2030 2030 2030 
2030 2030 2030 2030 2030 2030 2030 2030 2030 
2030 2030 2030 2030 2030 2030 2030 2030 2030 
2030 2030 2030 2030 2030 2030 2030 2030 2030 
2030 2030 2030 2030 2030 2030 2030 2030 2030 
2030 2030 2030 2030 2030 2030 2030 2030 2030 
2030 2030 2030 2030 2030 2030 2030 2030 2030 
2030 2030 2030 2030 2030 2030 2030 2030 2030 
2030 2030 2030 2030 2030 2030 2030 2030 2030 
2030 2030 2030 2030 2030 2030 2030 2030 2030 
2030 2030 2030 2030 2030 2030 2030 2030 2030 
2030 2030 2030 2030 2030 2030 2030 2030 2030 
2030 2030 2030 2030 2030 2030 2030 2030 2030 
2030 2030 2030 2030 2030 2030 2030 2030 2030 
2030 2030 2030 2030 2030 2030 2030 2030 2030 
2030 2030 2030 2030 2030 2030 2030 2030 2030 
2030 2030 2030 2030 2030 2030 2030 2030 2030 
2030 2030 2030 2030 2030 2030 2030 2030 2030 
2030 2030 2030 2030 2030 2030 2030 2030 2030 
2030 2030 2030 2030 2030 2030 2030 2030 2030 
2030 2030 2030 2030 2030 2030 2030 2030 2030 
2030 2030 2030 2030 2030 2030 2030 2030 2030 
2030 2030 2030 2030 2030 2030 2030 2030 2030 
2030 2030 2030 2030 2030 2030 2030 2030 2030 
2030 2030 2030 2030 2030 2030 2030 2030 2030 
2030 2030 2030 2030 2030 2030 2030 2030 2030 
2030 2030 2030 2030 2030 2030 2030 2030 2030 
2030 2030 2030 2030 2030 2030 2030 2030 2030 
2030 2030 2030 2030 2030 2030 2030 2030 2030 
2030 2030 2030 2030 2030 2030 2030 2030 2030 
2030 2030 2030 2030 2030 2030 2030 2030 2030 