# vtk DataFile Version 4.0
vtk output
ASCII
DATASET POLYDATA
POINTS 10012 float
-2.16135 66.7272 -18.9354 -1.71809 66.2852 -18.7198 -1.59735 66.5335 -19.0014 
-3.1145 66.8513 -19.1067 -2.67965 66.4103 -18.4815 -4.28887 66.9492 -19.1551 
-3.75482 66.6006 -18.5034 -5.038 66.8373 -19.2718 -4.70526 66.4797 -18.7589 
-5.24278 66.5591 -19.1623 -2.01085 66.4238 -19.4224 -3.07551 66.6477 -19.7149 
-3.60815 66.4965 -20.245 -3.87488 66.8715 -19.7944 -4.75481 66.8653 -19.8955 
-5.4351 66.4309 -19.7222 -4.3507 66.5478 -20.5016 -5.12721 66.4864 -20.3981 
-3.33425 66.0002 -17.9697 -3.24022 65.3145 -17.5935 -2.5286 65.5162 -17.8425 
-4.12313 66.0096 -18.1411 -3.93812 65.392 -17.6504 -4.46725 65.3825 -17.9607 
-1.15008 66.0146 -19.0118 -1.21281 65.4574 -18.6951 -0.782317 65.5128 -19.0297 
-1.97034 65.7804 -18.3522 -4.73555 65.6131 -18.7 -5.22661 66.0142 -19.2298 
-7.20194 65.9035 -19.2307 -7.29188 65.2802 -18.7391 -6.633 65.5837 -19.2113 
-8.18559 65.8507 -19.2529 -7.79863 65.5429 -18.71 -8.436 65.2219 -18.9736 
-1.14035 65.6931 -19.4575 -2.01415 65.8863 -20.1289 -1.44791 65.1556 -20.0659 
-2.90065 66.2392 -20.2053 -5.25477 65.3049 -19.3582 -6.00184 65.4316 -19.5339 
-6.10236 66.0363 -20.1273 -6.99073 66.0538 -20.0007 -7.75103 65.94 -20.0469 
-9.00121 65.4033 -19.4989 -8.74037 65.7756 -19.9312 -9.45178 65.3835 -19.9437 
-2.10541 65.5667 -20.7008 -2.40678 65.3712 -21.1779 -2.77725 65.8114 -20.8319 
-3.73789 66.0216 -20.9136 -4.93242 66.0397 -20.9926 -5.86878 65.8586 -21.0957 
-6.84232 65.8495 -20.8073 -7.61363 65.6145 -20.8841 -8.36159 65.5664 -20.5921 
-9.15731 65.468 -20.3611 -3.05916 65.3662 -21.3953 -4.10353 65.4105 -21.6015 
-5.26257 65.525 -21.6249 -6.27882 65.4905 -21.5828 -7.11119 65.4354 -21.4048 
-2.14267 64.7908 -17.1881 -2.06432 64.1113 -16.6638 -1.66714 64.4434 -17.1733 
-2.58004 64.3272 -16.8152 -1.70453 65.0017 -17.9669 -1.47593 64.2385 -17.7659 
-2.88578 64.7815 -17.2857 -3.90265 64.3494 -17.5569 -4.95902 64.917 -18.3057 
-4.81883 64.5341 -17.6048 -5.45975 64.3072 -17.9873 -0.956635 65.2204 -19.1945 
-1.32084 64.5586 -18.8684 -5.12356 64.9559 -19.0611 -5.55673 64.4535 -18.7724 
-6.8525 65.0494 -19.11 -7.40976 64.5548 -18.7811 -8.10596 64.5553 -18.5039 
-8.66072 64.4303 -18.8957 -1.39348 64.2947 -19.8959 -5.77907 64.6965 -19.412 
-6.6685 64.5403 -19.2922 -8.98784 64.7516 -19.264 -10.0632 65.0676 -20.2795 
-9.73081 64.7142 -19.534 -11.1967 64.9096 -20.0583 -10.7993 64.5491 -19.5301 
-11.802 64.8233 -20.2971 -11.9814 64.3662 -19.5221 -12.4981 64.4272 -19.9928 
-1.87733 65.0949 -20.9611 -1.60026 64.291 -20.8524 -7.83403 65.2312 -21.3224 
-8.88744 65.0385 -21.1031 -9.85178 64.895 -21.0296 -10.8569 64.9138 -20.8102 
-11.5227 64.5928 -20.8995 -12.244 64.2469 -20.5305 -2.24043 64.7291 -21.4138 
-3.01809 64.6325 -21.7838 -3.86652 64.8482 -22.0361 -3.35348 64.3546 -22.1581 
-4.72995 64.9952 -22.0825 -5.75705 65.0106 -22.084 -6.90954 65 -21.9639 
-7.93854 64.8051 -21.9386 -8.61959 64.341 -22.086 -9.33111 64.3397 -21.588 
-10.2658 64.4054 -21.3922 -11.0151 64.3466 -21.2974 -4.14351 64.2581 -22.3873 
-5.23721 64.3733 -22.4357 -6.188 64.5024 -22.4113 -7.1304 64.3985 -22.5721 
-8.01785 64.3676 -22.5681 -2.24171 63.4519 -16.6227 -1.68823 63.7503 -17.05 
-3.20633 64.016 -17.1255 -2.7625 63.685 -16.6431 -3.18727 63.4033 -17.1675 
-1.54568 63.4587 -18.0867 -3.49189 63.4878 -18.1296 -4.02539 63.8815 -18.2524 
-4.47422 63.6574 -18.0054 -5.06831 63.3751 -17.6032 -6.21432 63.8853 -18.3451 
-5.87665 63.469 -17.6149 -6.57997 63.0987 -18.1913 -7.85322 63.891 -18.2298 
-7.80648 63.1761 -17.6999 -7.41291 63.2651 -18.3327 -8.44781 63.2964 -17.9839 
-1.4101 63.6414 -19.19 -3.88642 63.696 -18.8602 -3.6768 63.3005 -19.1099 
-4.39412 63.5374 -18.7501 -6.26176 64.1992 -19.0704 -6.92193 63.533 -18.481 
-7.0644 63.9792 -18.7036 -9.31902 64.0582 -19.0149 -9.03783 63.5272 -18.543 
-10.26 63.9978 -19.0311 -10.0019 63.3311 -18.6593 -11.2885 64.0006 -18.9977 
-10.8451 63.4705 -18.6568 -11.9826 63.8893 -18.9805 -11.8877 63.2083 -18.4684 
-12.5734 63.5181 -19.0157 -1.53798 63.3307 -20.1141 -4.18552 63.279 -19.3475 
-12.9167 63.9751 -20.1018 -12.9111 63.7956 -19.5986 -13.3111 63.2506 -19.7847 
-1.59634 63.3129 -21.0453 -11.6343 63.593 -21.2199 -12.3097 63.338 -20.7759 
-12.9494 63.4428 -20.3579 -2.1596 63.6274 -21.5951 -2.78443 63.9338 -22.0126 
-2.68233 63.3164 -22.002 -8.99243 63.9592 -22.0357 -9.50927 63.3762 -22.148 
-10.0581 63.6323 -21.7516 -10.8551 63.6022 -21.6365 -3.31906 63.5709 -22.3231 
-4.14803 63.3312 -22.5482 -4.84949 63.6528 -22.5785 -5.94853 63.7179 -22.7258 
-6.89518 63.876 -23.0297 -6.39848 63.3754 -23.1408 -7.68727 63.9676 -23.0831 
-8.43498 63.7887 -22.903 -8.96396 63.518 -22.5573 -7.16133 63.3085 -23.4174 
-8.19864 63.2613 -23.412 -16.987 62.7133 -14.9684 -16.9207 62.2497 -14.7469 
-16.6999 62.6102 -14.9914 -17.4482 62.443 -14.9472 -16.013 62.6451 -15.9449 
-15.9348 62.4238 -15.5765 -15.7645 62.3355 -15.8295 -17.1692 62.3357 -15.2181 
-16.2329 62.317 -16.0002 -2.11844 63.134 -17.2408 -2.75884 63.1764 -16.892 
-15.9181 62.2763 -16.4356 -1.95477 62.8184 -18.0501 -2.74305 62.9237 -17.7277 
-5.13901 63.0403 -18.3543 -5.56119 62.5143 -17.8801 -6.06432 62.4955 -17.6226 
-7.2141 62.9764 -17.8643 -7.10131 62.6515 -17.6125 -8.07008 62.6517 -17.6247 
-8.58393 62.4383 -18.078 -12.0293 62.7803 -17.9723 -12.0713 62.1708 -17.7477 
-11.6873 62.5897 -18.0408 -12.5014 62.4856 -17.9914 -2.17508 62.1632 -18.4568 
-1.64663 62.6196 -18.9736 -3.07929 62.4021 -18.4125 -3.59748 62.6139 -18.8873 
-5.01559 63.0953 -19.2501 -5.98682 62.5857 -18.2866 -6.03008 62.9857 -19.0583 
-6.86912 62.5555 -18.2402 -7.03875 63.0368 -19.0315 -7.42946 62.5018 -18.8524 
-9.17916 62.5884 -18.4823 -10.0893 62.4121 -18.6376 -11.0007 62.5966 -18.3852 
-13.164 63.0758 -19.1924 -12.8834 62.7516 -18.5918 -13.4621 62.5405 -19.1243 
-1.86207 62.5586 -19.721 -1.88267 62.731 -20.2355 -2.17139 62.0924 -20.0964 
-3.9568 62.7818 -19.3783 -4.94598 62.4446 -19.5104 -5.74613 62.8477 -19.8916 
-5.70109 62.3778 -20.0605 -6.68295 62.8307 -20.0133 -7.4999 62.4786 -19.8069 
-13.5495 62.6152 -19.9305 -2.05637 62.2936 -20.6426 -1.72367 62.7357 -20.8135 
-6.30736 62.4739 -20.4241 -7.23027 62.2451 -20.4906 -12.0028 63.0101 -21.0779 
-12.3471 62.5898 -20.977 -13.1084 62.3606 -20.5879 -1.90801 62.7214 -21.3595 
-2.57846 62.4745 -21.8075 -3.10328 62.8488 -22.1648 -3.19226 62.2474 -22.1873 
-10.097 63.059 -22.0613 -10.6762 62.9032 -22.0495 -11.3686 62.6836 -21.8686 
-11.9442 62.338 -21.4383 -3.84989 62.4011 -22.4652 -5.01477 62.7627 -22.6946 
-5.82951 62.9221 -22.9881 -5.58458 62.1335 -23.0347 -8.8616 63.0874 -23.1597 
-9.44743 62.7267 -22.9007 -10.2762 62.3751 -22.5641 -11.0443 62.1933 -22.3215 
-6.33169 62.5603 -23.3728 -7.14651 62.3976 -23.5753 -8.01473 62.5065 -23.5945 
-9.07663 62.3568 -23.4453 -16.3576 62.1376 -15.2462 -16.1751 61.4758 -14.6358 
-15.5508 61.7463 -15.341 -17.1912 61.3565 -14.5364 -17.9309 62.0079 -15.1035 
-17.8091 61.7371 -14.7578 -18.2622 61.3226 -14.9969 -15.3869 61.7876 -16.143 
-17.1439 61.4433 -15.6477 -16.5825 61.5701 -16.1059 -17.9522 61.4728 -15.3397 
-15.1385 61.8883 -17.0435 -14.8449 61.4156 -16.6251 -14.4285 61.5313 -17.1904 
-15.79 61.9089 -17.3158 -16.3449 61.6138 -16.9014 -6.2144 62.1695 -18.0043 
-7.09712 62.107 -18.143 -8.00395 62.1145 -18.1011 -12.0096 61.3072 -17.6628 
-11.5521 61.7675 -17.9928 -13.3515 62.0516 -18.1939 -12.6878 61.4635 -17.5172 
-14.2408 61.8431 -17.8431 -13.6644 61.4816 -17.4535 -14.9585 61.83 -18.1014 
-15.669 61.358 -18.1275 -16.133 61.3872 -17.6481 -2.19708 61.1847 -18.6824 
-1.77827 61.6689 -18.917 -2.95975 61.4024 -18.4706 -4.27075 62.0923 -19.0607 
-3.94263 61.5359 -18.6043 -4.88685 61.8828 -19.0451 -4.9547 61.3384 -18.7017 
-5.49268 61.481 -19.0088 -7.92908 62.0507 -19.0633 -8.78478 61.9371 -19.0503 
-9.76692 61.8907 -19.0462 -10.4204 61.5599 -18.9843 -10.944 61.3796 -18.529 
-14.0784 61.9827 -19.0683 -14.6871 61.4457 -19.1433 -15.1378 61.3669 -18.6409 
-1.93457 61.7946 -19.4382 -2.28846 61.2016 -19.7718 -6.15302 61.9587 -20.2262 
-6.00037 61.5091 -19.563 -6.55985 61.3683 -20.0659 -8.06595 61.9508 -20.0141 
-8.58501 61.4635 -19.9812 -9.30128 61.2083 -19.5912 -10.0792 61.2525 -19.3189 
-13.8974 61.9853 -20.0904 -14.3226 61.5087 -19.8464 -2.14385 62.1079 -21.2419 
-2.46939 61.3923 -20.7404 -6.95756 61.6098 -20.5097 -7.90231 61.4252 -20.4769 
-12.5307 61.7356 -21.056 -13.1855 61.2036 -20.71 -13.9087 61.4066 -20.3811 
-2.71897 61.5546 -21.7524 -2.93675 61.9104 -22.0767 -11.5412 61.7072 -22.0613 
-12.033 61.2052 -21.5644 -3.26101 61.6726 -22.2837 -3.99597 61.3241 -22.4293 
-4.86748 61.6863 -22.7018 -5.51704 61.195 -23.0559 -9.89247 62.0244 -23.1651 
-10.4015 61.5158 -23.0372 -10.9626 61.3278 -22.596 -6.02572 61.6264 -23.3773 
-6.93926 61.4039 -23.6551 -7.99075 61.5124 -23.595 -9.01451 61.4671 -23.5762 
-9.90813 61.3775 -23.4047 -15.9314 60.7613 -13.2831 -15.9218 60.338 -12.7572 
-15.4892 60.5746 -13.0714 -16.2805 60.2571 -13.0003 -15.2387 60.8503 -13.7674 
-14.9609 60.2217 -13.4856 -14.6889 60.521 -14.21 -15.9213 60.9452 -14.1068 
-16.5108 60.2549 -13.799 -15.0068 61.0107 -14.8503 -14.3945 60.2529 -15.0717 
-16.8304 60.6779 -14.3854 -17.8325 60.5413 -14.5624 -18.3739 60.653 -14.9874 
-14.0923 60.81 -15.9653 -14.0278 60.3493 -15.8075 -13.5773 60.5749 -16.2413 
-14.8251 61.2013 -15.9491 -16.9159 60.9184 -16.1793 -17.3165 60.5749 -15.9548 
-18.0525 60.3996 -15.5308 -13.3073 60.931 -16.8495 -13.1879 60.1703 -16.6168 
-12.6536 60.5715 -17.0901 -14.1641 61.1511 -16.7655 -16.6569 60.6974 -16.8188 
-17.0024 60.1438 -16.4596 -12.1059 60.3684 -17.5246 -11.5466 60.724 -18.0223 
-16.0801 60.9807 -18.0602 -16.3751 60.5674 -17.7115 -2.00185 61.1478 -19.144 
-2.4428 60.627 -19.1228 -3.02081 60.5329 -18.6499 -3.97214 60.5714 -18.5609 
-5.06831 60.3673 -18.5784 -6.05938 60.989 -18.9668 -5.92734 60.5114 -18.6161 
-6.53967 60.516 -18.9949 -10.868 60.1733 -18.5709 -10.499 60.8014 -19.0468 
-14.966 60.9364 -19.2309 -15.4028 60.7028 -18.8697 -15.9704 60.3203 -18.4496 
-2.66339 60.5293 -19.922 -7.14989 60.8846 -20.2108 -6.85132 60.739 -19.6508 
[...]
CELL_DATA 20064
SCALARS scalars float
LOOKUP_TABLE default
1012 1012 1012 1012 1012 1012 1012 1012 1012 
1012 1012 1012 1012 1012 1012 1012 1012 1012 
1012 1012 1012 1012 1012 1012 1012 1012 1012 
1012 1012 1012 1012 1012 1012 1012 1012 1012 
1012 1012 1012 1012 1012 1012 1012 1012 1012 
1012 1012 1012 1012 1012 1012 1012 1012 1012 
1012 1012 1012 1012 1012 1012 1012 1012 1012 
1012 1012 1012 1012 1012 1012 1012 1012 1012 
1012 1012 1012 1012 1012 1012 1012 1012 1012 
1012 1012 1012 1012 1012 1012 1012 1012 1012 
1012 1012 1012 1012 1012 1012 1012 1012 1012 
1012 1012 1012 1012 1012 1012 1012 1012 1012 
1012 1012 1012 1012 1012 1012 1012 1012 1012 
1012 1012 1012 1012 1012 1012 1012 1012 1012 
1012 1012 1012 1012 1012 1012 1012 1012 1012 
1012 1012 1012 1012 1012 1012 1012 1012 1012 
1012 1012 1012 1012 1012 1012 1012 1012 1012 
1012 1012 1012 1012 1012 1012 1012 1012 1012 
1012 1012 1012 1012 1012 1012 1012 1012 1012 
1012 1012 1012 1012 1012 1012 1012 1012 1012 
1012 1012 1012 1012 1012 1012 1012 1012 1012 
1012 1012 1012 1012 1012 1012 1012 1012 1012 
1012 1012 1012 1012 1012 1012 1012 1012 1012 
1012 1012 1012 1012 1012 1012 1012 1012 1012 
1012 1012 1012 1012 1012 1012 1012 1012 1012 
1012 1012 1012 1012 1012 1012 1012 1012 1012 
1012 1012 1012 1012 1012 1012 1012 1012 1012 
1012 1012 1012 1012 1012 1012 1012 1012 1012 
1012 1012 1012 1012 1012 1012 1012 1012 1012 
1012 1012 1012 1012 1012 1012 1012 1012 1012 
1012 1012 1012 1012 1012 1012 1012 1012 1012 
1012 1012 1012 1012 1012 1012 1012 1012 1012 
1012 1012 1012 1012 1012 1012 1012 1012 1012 
1012 1012 1012 1012 1012 1012 1012 1012 1012 
1012 1012 1012 1012 1012 1012 1012 1012 1012 
1012 1012 1012 1012 1012 1012 1012 1012 1012 
1012 1012 1012 1012 1012 1012 1012 1012 1012 
1012 1012 1012 1012 1012 1012 1012 1012 1012 
1012 1012 1012 1012 1012 1012 1012 1012 1012 
1012 1012 1012 1012 1012 1012 1012 1012 1012 
1012 1012 1012 1012 1012 1012 1012 1012 1012 
1012 1012 1012 1012 1012 1012 1012 1012 1012 
1012 1012 1012 1012 1012 1012 1012 1012 1012 
1012 1012 1012 1012 1012 1012 1012 1012 1012 
1012 1012 1012 1012 1012 1012 1012 1012 1012 
1012 1012 1012 1012 1012 1012 1012 1012 1012 
1012 1012 1012 1012 1012 1012 1012 1012 1012 
1012 1012 1012 1012 1012 1012 1012 1012 1012 
1012 1012 1012 1012 1012 1012 1012 1012 1012 
1012 1012 1012 1012 1012 1012 1012 1012 1012 
1012 1012 1012 1012 1012 1012 1012 1012 1012 
1012 1012 1012 1012 1012 1012 1012 1012 1012 
1012 1012 1012 1012 1012 1012 1012 1012 1012 
1012 1012 1012 1012 1012 1012 1012 1012 1012 
1012 1012 1012 1012 1012 1012 1012 1012 1012 
1012 1012 1012 1012 1012 1012 1012 1012 1012 
1012 1012 1012 1012 1012 1012 1012 1012 1012 
1012 1012 1012 1012 1012 1012 1012 1012 1012 
1012 1012 1012 1012 1012 1012 1012 1012 1012 
1012 1012 1012 1012 1012 1012 1012 1012 1012 
1012 1012 1012 1012 1012 1012 1012 1012 1012 
1012 1012 1012 1012 1012 1012 1012 1012 1012 
1012 1012 1012 1012 1012 1012 1012 1012 1012 
1012 1012 1012 1012 1012 1012 1012 1012 1012 
1012 1012 1012 1012 1012 1012 1012 1012 1012 
1012 1012 1012 1012 1012 1012 1012 1012 1012 
1012 1012 1012 1012 1012 1012 1012 1012 1012 
1012 1012 1012 1012 1012 1012 1012 1012 1012 
1012 1012 1012 1012 1012 1012 1012 1012 1012 
1012 1012 1012 1012 1012 1012 1012 1012 1012 
1012 1012 1012 1012 1012 1012 1012 1012 1012 
1012 1012 1012 1012 1012 1012 1012 1012 1012 
1012 1012 1012 1012 1012 1012 1012 1012 1012 
1012 1012 1012 1012 1012 1012 1012 1012 1012 
1012 1012 1012 1012 1012 1012 1012 1012 1012 
1012 1012 1012 1012 1012 1012 1012 1012 1012 
1012 1012 1012 1012 1012 1012 1012 1012 1012 
1012 1012 1012 1012 1012 1012 1012 1012 1012 
1012 1012 1012 1012 1012 1012 1012 1012 1012 
1012 1012 1012 1012 1012 1012 1012 1012 1012 
1012 1012 1012 1012 1012 1012 1012 1012 1012 
1012 1012 1012 1012 1012 1012 1012 1012 1012 
1012 1012 1012 1012 1012 1012 1012 1012 1012 
1012 1012 1012 1012 1012 1012 1012 1012 1012 
1012 1012 1012 1012 1012 1012 1012 1012 1012 
1012 1012 1012 1012 1012 1012 1012 1012 1012 
1012 1012 1012 1012 1012 1012 1012 1012 1012 
1012 1012 1012 1012 1012 1012 1012 1012 1012 
1012 1012 1012 1012 1012 1012 1012 1012 1012 
1012 1012 1012 1012 1012 1012 1012 1012 1012 
1012 1012 1012 1012 1012 1012 1012 1012 1012 
1012 1012 1012 1012 1012 1012 1012 1012 1012 
1012 1012 1012 1012 1012 1012 1012 1012 1012 
1012 1012 1012 1012 1012 1012 1012 1012 1012 
1012 1012 1012 1012 1012 1012 1012 1012 1012 
1012 1012 1012 1012 1012 1012 1012 1012 1012 
1012 1012 1012 1012 1012 1012 1012 1012 1012 
1012 1012 1012 1012 1012 1012 1012 1012 1012 
1012 1012 1012 1012 1012 1012 1012 1012 1012 
1012 1012 1012 1012 1012 1012 1012 1012 1012 
1012 1012 1012 1012 1012 1012 1012 1012 1012 
1012 1012 1012 1012 1012 1012 1012 1012 1012 
1012 1012 1012 1012 1012 1012 1012 1012 1012 
1012 1012 1012 1012 1012 1012 1012 1012 1012 
1012 1012 1012 1012 1012 1012 1012 1012 1012 
1012 1012 1012 1012 1012 1012 1012 1012 1012 
1012 1012 1012 1012 1012 1012 1012 1012 1012 
1012 1012 1012 1012 1012 1012 1012 1012 1012 
1012 1012 1012 1012 1012 1012 1012 1012 1012 
1012 1012 1012 1012 1012 1012 1012 1012 1012 
1012 1012 1012 1012 1012 1012 1012 1012 1012 
1012 1012 1012 1012 1012 1012 1012 1012 1012 
1012 1012 1012 1012 1012 1012 1012 1012 1012 
1012 1012 1012 1012 1012 1012 1012 1012 1012 
1012 1012 1012 1012 1012 1012 1012 1012 1012 
1012 1012 1012 1012 1012 1012 1012 1012 1012 
1012 1012 1012 1012 1012 1012 1012 1012 1012 
1012 1012 1012 1012 1012 1012 1012 1012 1012 
1012 1012 1012 1012 1012 1012 1012 1012 1012 
1012 1012 1012 1012 1012 1012 1012 1012 1012 
1012 1012 1012 1012 1012 1012 1012 1012 1012 
1012 1012 1012 1012 1012 1012 1012 1012 1012 
1012 1012 1012 1012 1012 1012 1012 1012 1012 
1012 1012 1012 1012 1012 1012 1012 1012 1012 
1012 1012 1012 1012 1012 1012 1012 1012 1012 
1012 1012 1012 1012 1012 1012 1012 1012 1012 
1012 1012 1012 1012 1012 1012 1012 1012 1012 
1012 1012 1012 1012 1012 1012 1012 1012 1012 
1012 1012 1012 1012 1012 1012 1012 1012 1012 
1012 1012 1012 1012 1012 1012 1012 1012 1012 
1012 1012 1012 1012 1012 1012 1012 1012 1012 
1012 1012 1012 1012 1012 1012 1012 1012 1012 
1012 1012 1012 1012 1012 1012 1012 1012 1012 
1012 1012 1012 1012 1012 1012 1012 1012 1012 
1012 1012 1012 1012 1012 1012 1012 1012 1012 
1012 1012 1012 1012 1012 1012 1012 1012 1012 
1012 1012 1012 1012 1012 1012 1012 1012 1012 
1012 1012 1012 1012 1012 1012 1012 1012 1012 
1012 1012 1012 1012 1012 1012 1012 1012 1012 
1012 1012 1012 1012 1012 1012 1012 1012 1012 
1012 1012 1012 1012 1012 1012 1012 1012 1012 
1012 1012 1012 1012 1012 1012 1012 1012 1012 
1012 1012 1012 1012 1012 1012 1012 1012 1012 
1012 1012 1012 1012 1012 1012 1012 1012 1012 
1012 1012 1012 1012 1012 1012 1012 1012 1012 
1012 1012 1012 1012 1012 1012 1012 1012 1012 
1012 1012 1012 1012 1012 1012 1012 1012 1012 
1012 1012 1012 1012 1012 1012 1012 1012 1012 
1012 1012 1012 1012 1012 1012 1012 1012 1012 
1012 1012 1012 1012 1012 1012 1012 1012 1012 
1012 1012 1012 1012 1012 1012 1012 1012 1012 
1012 1012 1012 1012 1012 1012 1012 1012 1012 
1012 1012 1012 1012 1012 1012 1012 1012 1012 
1012 1012 1012 1012 1012 1012 1012 1012 1012 
1012 1012 1012 1012 1012 1012 1012 1012 1012 
1012 1012 1012 1012 1012 1012 1012 1012 1012 
1012 1012 1012 1012 1012 1012 1012 1012 1012 
1012 1012 1012 1012 1012 1012 1012 1012 1012 
1012 1012 1012 1012 1012 1012 1012 1012 1012 
1012 1012 1012 1012 1012 1012 1012 1012 1012 
1012 1012 1012 1012 1012 1012 1012 1012 1012 
1012 1012 1012 1012 1012 1012 1012 1012 1012 
1012 1012 1012 1012 1012 1012 1012 1012 1012 
1012 1012 1012 1012 1012 1012 1012 1012 1012 
1012 1012 1012 1012 1012 1012 1012 1012 1012 
1012 1012 1012 1012 1012 1012 1012 1012 1012 
1012 1012 1012 1012 1012 1012 1012 1012 1012 
1012 1012 1012 1012 1012 1012 1012 1012 1012 
1012 1012 1012 1012 1012 1012 1012 1012 1012 
1012 1012 1012 1012 1012 1012 1012 1012 1012 
1012 1012 1012 1012 1012 1012 1012 1012 1012 
1012 1012 1012 1012 1012 1012 1012 1012 1012 
1012 1012 1012 1012 1012 1012 1012 1012 1012 
1012 1012 1012 1012 1012 1012 1012 1012 1012 
1012 1012 1012 1012 1012 1012 1012 1012 1012 
1012 1012 1012 1012 1012 1012 1012 1012 1012 
1012 1012 1012 1012 1012 1012 1012 1012 1012 
1012 1012 1012 1012 1012 1012 1012 1012 1012 
1012 1012 1012 1012 1012 1012 1012 1012 1012 
1012 1012 1012 1012 1012 1012 1012 1012 1012 
1012 1012 1012 1012 1012 1012 1012 1012 1012 
1012 1012 1012 1012 1012 1012 1012 1012 1012 
1012 1012 1012 1012 1012 1012 1012 1012 1012 
1012 1012 1012 1012 1012 1012 1012 1012 1012 
1012 1012 1012 1012 1012 1012 1012 1012 1012 
1012 1012 1012 1012 1012 1012 1012 1012 1012 
1012 1012 1012 1012 1012 1012 1012 1012 1012 
1012 1012 1012 1012 1012 1012 1012 1012 1012 
1012 1012 1012 1012 1012 1012 1012 1012 1012 
1012 1012 1012 1012 1012 1012 1012 1012 1012 
1012 1012 1012 1012 1012 1012 1012 1012 1012 
1012 1012 1012 1012 1012 1012 1012 1012 1012 
1012 1012 1012 1012 1012 1012 1012 1012 1012 
1012 1012 1012 1012 1012 1012 1012 1012 1012 
1012 1012 1012 1012 1012 1012 1012 1012 1012 
1012 1012 1012 1012 1012 1012 1012 1012 1012 
1012 1012 1012 1012 1012 1012 1012 1012 1012 
1012 1012 1012 1012 1012 1012 1012 1012 1012 
1012 1012 1012 1012 1012 1012 1012 1012 1012 
1012 1012 1012 1012 1012 1012 1012 1012 1012 
1012 1012 1012 1012 1012 1012 1012 1012 1012 
1012 1012 1012 1012 1012 1012 1012 1012 1012 
1012 1012 1012 1012 1012 1012 1012 1012 1012 
1012 1012 1012 1012 1012 1012 1012 1012 1012 
1012 1012 1012 1012 1012 1012 1012 1012 1012 
1012 1012 1012 1012 1012 1012 1012 1012 1012 
1012 1012 1012 1012 1012 1012 1012 1012 1012 
1012 1012 1012 1012 1012 1012 1012 1012 1012 
1012 1012 1012 1012 1012 1012 1012 1012 1012 
1012 1012 1012 1012 1012 1012 1012 1012 1012 
1012 1012 1012 1012 1012 1012 1012 1012 1012 
1012 1012 1012 1012 1012 1012 1012 1012 1012 
1012 1012 1012 1012 1012 1012 1012 1012 1012 
1012 1012 1012 1012 1012 1012 1012 1012 1012 
1012 1012 1012 1012 1012 1012 1012 1012 1012 
1012 1012 1012 1012 1012 1012 1012 1012 1012 
1012 1012 1012 1012 1012 1012 1012 1012 1012 
1012 1012 1012 1012 1012 1012 1012 1012 1012 
1012 1012 1012 1012 1012 1012 1012 1012 1012 
1012 1012 1012 1012 1012 1012 1012 1012 1012 
1012 1012 1012 1012 1012 1012 1012 1012 1012 
1012 1012 1012 1012 1012 1012 1012 1012 1012 
1012 1012 1012 1012 1012 1012 1012 1012 1012 
1012 1012 1012 1012 1012 1012 1012 1012 1012 
1012 1012 1012 1012 1012 1012 1012 1012 1012 
1012 1012 1012 1012 1012 1012 1012 1012 1012 
1012 1012 1012 1012 1012 1012 1012 1012 1012 
1012 1012 1012 1012 1012 1012 1012 1012 1012 
1012 1012 1012 1012 1012 1012 1012 1012 1012 
1012 1012 1012 1012 1012 1012 1012 1012 1012 
1012 1012 1012 1012 1012 1012 1012 1012 1012 
1012 1012 1012 1012 1012 1012 1012 1012 1012 
1012 1012 1012 1012 1012 1012 1012 1012 1012 
1012 1012 1012 1012 1012 1012 1012 1012 1012 
1012 1012 1012 1012 1012 1012 1012 1012 1012 
1012 1012 1012 1012 1012 1012 1012 1012 1012 
1012 1012 1012 1012 1012 1012 1012 1012 1012 
1012 1012 1012 1012 1012 1012 1012 1012 1012 
1012 1012 1012 1012 1012 1012 1012 1012 1012 
1012 1012 1012 1012 1012 1012 1012 1012 1012 
1012 1012 1012 1012 1012 1012 1012 1012 1012 
1012 1012 1012 1012 1012 1012 1012 1012 1012 
1012 1012 1012 1012 1012 1012 1012 1012 1012 
1012 1012 1012 1012 1012 1012 1012 1012 1012 
1012 1012 1012 1012 1012 1012 1012 1012 1012 
1012 1012 1012 1012 1012 1012 1012 1012 1012 
1012 1012 1012 1012 1012 1012 1012 1012 1012 
1012 1012 1012 1012 1012 1012 1012 1012 1012 
1012 1012 1012 1012 1012 1012 1012 1012 1012 
1012 1012 1012 1012 1012 1012 1012 1012 1012 
1012 1012 1012 1012 1012 1012 1012 1012 1012 
1012 1012 1012 1012 1012 1012 1012 1012 1012 
1012 1012 1012 1012 1012 1012 1012 1012 1012 
1012 1012 1012 1012 1012 1012 1012 1012 1012 
1012 1012 1012 1012 1012 1012 1012 1012 1012 
1012 1012 1012 1012 1012 1012 1012 1012 1012 
1012 1012 1012 1012 1012 1012 1012 1012 1012 
1012 1012 1012 1012 1012 1012 1012 1012 1012 
1012 1012 1012 1012 1012 1012 1012 1012 1012 
1012 1012 1012 1012 1012 1012 1012 1012 1012 
1012 1012 1012 1012 1012 1012 1012 1012 1012 
1012 1012 1012 1012 1012 1012 1012 1012 1012 
1012 1012 1012 1012 1012 1012 1012 1012 1012 
1012 1012 1012 1012 1012 1012 1012 1012 1012 
1012 1012 1012 1012 1012 1012 1012 1012 1012 
1012 1012 1012 1012 1012 1012 1012 1012 1012 
1012 1012 1012 1012 1012 1012 1012 1012 1012 
1012 1012 1012 1012 1012 1012 1012 1012 1012 
1012 1012 1012 1012 1012 1012 1012 1012 1012 
1012 1012 1012 1012 1012 1012 1012 1012 1012 
1012 1012 1012 1012 1012 1012 1012 1012 1012 
1012 1012 1012 1012 1012 1012 1012 1012 1012 
1012 1012 1012 1012 1012 1012 1012 1012 1012 
1012 1012 1012 1012 1012 1012 1012 1012 1012 
1012 1012 1012 1012 1012 1012 1012 1012 1012 
1012 1012 1012 1012 1012 1012 1012 1012 1012 
1012 1012 1012 1012 1012 1012 1012 1012 1012 
1012 1012 1012 1012 1012 1012 1012 1012 1012 
1012 1012 1012 1012 1012 1012 1012 1012 1012 
1012 1012 1012 1012 1012 1012 1012 1012 1012 
1012 1012 1012 1012 1012 1012 1012 1012 1012 
1012 1012 1012 1012 1012 1012 1012 1012 1012 
1012 1012 1012 1012 1012 1012 1012 1012 1012 
1012 1012 1012 1012 1012 1012 1012 1012 1012 
1012 1012 1012 1012 1012 1012 1012 1012 1012 
1012 1012 1012 1012 1012 1012 1012 1012 1012 
1012 1012 1012 1012 1012 1012 1012 1012 1012 
1012 1012 1012 1012 1012 1012 1012 1012 1012 
1012 1012 1012 1012 1012 1012 1012 1012 1012 
1012 1012 1012 1012 1012 1012 1012 1012 1012 
1012 1012 1012 1012 1012 1012 1012 1012 1012 
1012 1012 1012 1012 1012 1012 1012 1012 1012 
1012 1012 1012 1012 1012 1012 1012 1012 1012 
1012 1012 1012 1012 1012 1012 1012 1012 1012 
1012 1012 1012 1012 1012 1012 1012 1012 1012 
1012 1012 1012 1012 1012 1012 1012 1012 1012 
1012 1012 1012 1012 1012 1012 1012 1012 1012 
1012 1012 1012 1012 1012 1012 1012 1012 1012 
1012 1012 1012 1012 1012 1012 1012 1012 1012 
1012 1012 1012 1012 1012 1012 1012 1012 1012 
1012 1012 1012 1012 1012 1012 1012 1012 1012 
1012 1012 1012 1012 1012 1012 1012 1012 1012 
1012 1012 1012 1012 1012 1012 1012 1012 1012 
1012 1012 1012 1012 1012 1012 1012 1012 1012 
1012 1012 1012 1012 1012 1012 1012 1012 1012 
1012 1012 1012 1012 1012 1012 1012 1012 1012 
1012 1012 1012 1012 1012 1012 1012 1012 1012 
1012 1012 1012 1012 1012 1012 1012 1012 1012 
1012 1012 1012 1012 1012 1012 1012 1012 1012 
1012 1012 1012 1012 1012 1012 1012 1012 1012 
1012 1012 1012 1012 1012 1012 1012 1012 1012 
1012 1012 1012 1012 1012 1012 1012 1012 1012 
1012 1012 1012 1012 1012 1012 1012 1012 1012 
1012 1012 1012 1012 1012 1012 1012 1012 1012 
1012 1012 1012 1012 1012 1012 1012 1012 1012 
1012 1012 1012 1012 1012 1012 1012 1012 1012 
1012 1012 1012 1012 1012 1012 1012 1012 1012 
1012 1012 1012 1012 1012 1012 1012 1012 1012 
1012 1012 1012 1012 1012 1012 1012 1012 1012 
1012 1012 1012 1012 1012 1012 1012 1012 1012 
1012 1012 1012 1012 1012 1012 1012 1012 1012 
1012 1012 1012 1012 1012 1012 1012 1012 1012 
1012 1012 1012 1012 1012 1012 1012 1012 1012 
1012 1012 1012 1012 1012 1012 1012 1012 1012 
1012 1012 1012 1012 1012 1012 1012 1012 1012 
1012 1012 1012 1012 1012 1012 1012 1012 1012 
1012 1012 1012 1012 1012 1012 1012 1012 1012 
1012 1012 1012 1012 1012 1012 1012 1012 1012 
1012 1012 1012 1012 1012 1012 1012 1012 1012 
1012 1012 1012 1012 1012 1012 1012 1012 1012 
1012 1012 1012 1012 1012 1012 1012 1012 1012 
1012 1012 1012 1012 1012 1012 1012 1012 1012 
1012 1012 1012 1012 1012 1012 1012 1012 1012 
1012 1012 1012 1012 1012 1012 1012 1012 1012 
1012 1012 1012 1012 1012 1012 1012 1012 1012 
1012 1012 1012 1012 1012 1012 1012 1012 1012 
1012 1012 1012 1012 1012 1012 1012 1012 1012 
1012 1012 1012 1012 1012 1012 1012 1012 1012 
1012 1012 1012 1012 1012 1012 1012 1012 1012 
1012 1012 1012 1012 1012 1012 1012 1012 1012 
1012 1012 1012 1012 1012 1012 1012 1012 1012 
1012 1012 1012 1012 1012 1012 1012 1012 1012 
1012 1012 1012 1012 1012 1012 1012 1012 1012 
1012 1012 1012 1012 1012 1012 1012 1012 1012 
1012 1012 1012 1012 1012 1012 1012 1012 1012 
1012 1012 1012 1012 1012 1012 1012 1012 1012 
1012 1012 1012 1012 1012 1012 1012 1012 1012 
1012 1012 1012 1012 1012 1012 1012 1012 1012 
1012 1012 1012 1012 1012 1012 1012 1012 1012 
1012 1012 1012 1012 1012 1012 1012 1012 1012 
1012 1012 1012 1012 1012 1012 1012 1012 1012 
1012 1012 1012 1012 1012 1012 1012 1012 1012 
1012 1012 1012 1012 1012 1012 1012 1012 1012 
1012 1012 1012 1012 1012 1012 1012 1012 1012 
1012 1012 1012 1012 1012 1012 1012 1012 1012 
1012 1012 1012 1012 1012 1012 1012 1012 1012 
1012 1012 1012 1012 1012 1012 1012 1012 1012 
1012 1012 1012 1012 1012 1012 1012 1012 1012 
1012 1012 1012 1012 1012 1012 1012 1012 1012 
1012 1012 1012 1012 1012 1012 1012 1012 1012 
1012 1012 1012 1012 1012 1012 1012 1012 1012 
1012 1012 1012 1012 1012 1012 1012 1012 1012 
1012 1012 1012 1012 1012 1012 1012 1012 1012 
1012 1012 1012 1012 1012 1012 1012 1012 1012 
1012 1012 1012 1012 1012 1012 1012 1012 1012 
1012 1012 1012 1012 1012 1012 1012 1012 1012 
1012 1012 1012 1012 1012 1012 1012 1012 1012 
1012 1012 1012 1012 1012 1012 1012 1012 1012 
1012 1012 1012 1012 1012 1012 1012 1012 1012 
1012 1012 1012 1012 1012 1012 1012 1012 1012 
1012 1012 1012 1012 1012 1012 1012 1012 1012 
1012 1012 1012 1012 1012 1012 1012 1012 1012 
1012 1012 1012 1012 1012 1012 1012 1012 1012 
1012 1012 1012 1012 1012 1012 1012 1012 1012 
1012 1012 1012 1012 1012 1012 1012 1012 1012 
1012 1012 1012 1012 1012 1012 1012 1012 1012 
1012 1012 1012 1012 1012 1012 1012 1012 1012 
1012 1012 1012 1012 1012 1012 1012 1012 1012 
1012 1012 1012 1012 1012 1012 1012 1012 1012 
1012 1012 1012 1012 1012 1012 1012 1012 1012 
1012 1012 1012 1012 1012 1012 1012 1012 1012 
1012 1012 1012 1012 1012 1012 1012 1012 1012 
1012 1012 1012 1012 1012 1012 1012 1012 1012 
1012 1012 1012 1012 1012 1012 1012 1012 1012 
1012 1012 1012 1012 1012 1012 1012 1012 1012 
1012 1012 1012 1012 1012 1012 1012 1012 1012 
1012 1012 1012 1012 1012 1012 1012 1012 1012 
1012 1012 1012 1012 1012 1012 1012 1012 1012 
1012 1012 1012 1012 1012 1012 1012 1012 1012 
1012 1012 1012 1012 1012 1012 1012 1012 1012 
1012 1012 1012 1012 1012 1012 1012 1012 1012 
1012 1012 1012 1012 1012 1012 1012 1012 1012 
1012 1012 1012 1012 1012 1012 1012 1012 1012 
1012 1012 1012 1012 1012 1012 1012 1012 1012 
1012 1012 1012 1012 1012 1012 1012 1012 1012 
1012 1012 1012 1012 1012 1012 1012 1012 1012 
1012 1012 1012 1012 1012 1012 1012 1012 1012 
1012 1012 1012 1012 1012 1012 1012 1012 1012 
1012 1012 1012 1012 1012 1012 1012 1012 1012 
1012 1012 1012 1012 1012 1012 1012 1012 1012 
1012 1012 1012 1012 1012 1012 1012 1012 1012 
1012 1012 1012 1012 1012 1012 1012 1012 1012 
1012 1012 1012 1012 1012 1012 1012 1012 1012 
1012 1012 1012 1012 1012 1012 1012 1012 1012 
1012 1012 1012 1012 1012 1012 1012 1012 1012 
1012 1012 1012 1012 1012 1012 1012 1012 1012 
1012 1012 1012 1012 1012 1012 1012 1012 1012 
1012 1012 1012 1012 1012 1012 1012 1012 1012 
1012 1012 1012 1012 1012 1012 1012 1012 1012 
1012 1012 1012 1012 1012 1012 1012 1012 1012 
1012 1012 1012 1012 1012 1012 1012 1012 1012 
1012 1012 1012 1012 1012 1012 1012 1012 1012 
1012 1012 1012 1012 1012 1012 1012 1012 1012 
1012 1012 1012 1012 1012 1012 1012 1012 1012 
1012 1012 1012 1012 1012 1012 1012 1012 1012 
1012 1012 1012 1012 1012 1012 1012 1012 1012 
1012 1012 1012 1012 1012 1012 1012 1012 1012 
1012 1012 1012 1012 1012 1012 1012 1012 1012 
1012 1012 1012 1012 1012 1012 1012 1012 1012 
1012 1012 1012 1012 1012 1012 1012 1012 1012 
1012 1012 1012 1012 1012 1012 1012 1012 1012 
1012 1012 1012 1012 1012 1012 1012 1012 1012 
1012 1012 1012 1012 1012 1012 1012 1012 1012 
1012 1012 1012 1012 1012 1012 1012 1012 1012 
1012 1012 1012 1012 1012 1012 1012 1012 1012 
1012 1012 1012 1012 1012 1012 1012 1012 1012 
1012 1012 1012 1012 1012 1012 1012 1012 1012 
1012 1012 1012 1012 1012 1012 1012 1012 1012 
1012 1012 1012 1012 1012 1012 1012 1012 1012 
1012 1012 1012 1012 1012 1012 1012 1012 1012 
1012 1012 1012 1012 1012 1012 1012 1012 1012 
1012 1012 1012 1012 1012 1012 1012 1012 1012 
1012 1012 1012 1012 1012 1012 1012 1012 1012 