# vtk DataFile Version 4.0
vtk output
ASCII
DATASET POLYDATA
POINTS 14332 float
27.9663 14.7145 -43.0516 28.1332 14.2818 -42.7794 28.4456 14.4556 -43.1395 
27.544 14.4526 -43.0007 27.857 14.2808 -43.3418 29.9074 13.7167 -42.9561 
29.8667 13.3237 -42.7665 30.2605 13.4778 -43.0635 29.1598 14.0216 -43.0424 
29.0889 13.7399 -42.6074 28.1721 13.5959 -42.3661 27.1277 14.0269 -43.1639 
27.2924 13.759 -42.6142 26.6967 13.505 -42.9327 29.8458 13.4823 -43.2723 
28.8089 13.6377 -43.4423 27.8568 13.3922 -43.5766 26.9318 13.4375 -43.4083 
28.9225 12.7505 -39.1064 29.0102 12.5939 -38.7311 29.2543 12.5379 -39.186 
28.7815 12.3133 -39.1045 28.8458 12.838 -39.9899 29.3736 12.5632 -40.065 
28.5047 12.3906 -39.9689 28.8894 12.9112 -40.959 29.4435 12.3967 -40.9999 
28.1976 12.641 -40.6063 27.9435 12.8583 -41.128 27.7604 12.3921 -41.1443 
25.778 12.917 -41.2604 26.1008 12.3974 -40.5545 26.46 12.5533 -41.1831 
24.9653 12.8098 -41.2231 25.2678 12.5822 -40.5027 24.6435 12.2887 -40.7336 
29.1008 13.0238 -42.0558 29.6489 12.1372 -42.0715 27.9706 13.1946 -41.8699 
27.1586 12.2952 -41.4081 26.7557 13.0619 -41.9557 25.9376 13.0718 -42.048 
25.2824 12.88 -42.1254 24.433 12.2434 -41.893 30.0168 13.0946 -43.145 
29.5674 12.4963 -42.907 26.0787 13.0563 -42.8237 25.4119 12.6123 -42.9409 
24.8962 12.3893 -42.6665 29.3297 12.751 -43.4371 28.1202 12.3942 -43.6867 
26.9977 12.5064 -43.5836 25.9186 12.3964 -43.3882 29.1131 12.1748 -39.0104 
29.2115 11.4431 -39.4312 29.5391 11.6458 -39.995 28.6225 11.5338 -39.7818 
26.7194 11.8224 -40.0916 27.0821 11.4101 -39.5094 27.3121 11.2149 -39.9614 
25.7531 12.0734 -39.9631 26.1906 11.4404 -39.5179 24.9978 12.0765 -40.0962 
25.2567 11.4815 -39.8119 24.7038 11.6806 -40.214 29.6866 11.5417 -41.2893 
28.0737 12.1489 -40.8671 28.276 11.3828 -40.7732 27.0447 11.4671 -40.4316 
26.7138 11.5913 -40.9998 24.324 11.5482 -40.8721 29.9944 11.7404 -41.887 
29.9912 11.3437 -41.8024 30.1672 11.5155 -42.0429 27.7272 11.7383 -41.3755 
27.1543 11.362 -41.6543 23.9963 11.7067 -41.5961 23.9524 11.8496 -42.057 
23.6666 11.1876 -41.9273 29.9942 11.6473 -42.2869 29.5705 11.355 -42.808 
25.1112 12.0994 -43.1584 24.525 11.7904 -42.8932 23.961 11.5348 -42.5638 
28.9278 11.7916 -43.5979 28.1866 11.7318 -43.997 28.4643 11.1784 -44.0989 
27.5924 11.6556 -43.9674 26.9591 11.6538 -43.7478 25.9118 11.4108 -43.6502 
24.9161 11.3739 -43.4042 27.7431 11.2508 -44.2801 26.7717 11.0189 -38.9785 
27.1962 10.3979 -38.5203 27.4198 10.7549 -39.2672 25.8017 10.8832 -39.039 
26.2429 10.5313 -38.4403 25.0852 10.6554 -39.1578 25.288 10.3957 -38.7532 
24.8432 10.4793 -39.0706 29.8939 10.9127 -39.865 29.9093 10.4116 -39.6743 
30.2412 10.2496 -40.0724 29.1534 10.5851 -39.6529 28.6365 10.4219 -40.323 
27.4433 10.273 -39.9089 25.2202 10.5287 -39.6034 24.7643 10.9979 -40.177 
24.9051 10.4994 -39.3069 29.8529 10.5037 -40.2492 29.5411 10.5658 -40.794 
28.3079 10.3681 -41.038 27.0659 10.7949 -40.5419 26.672 10.3864 -41.0632 
24.7109 10.3 -40.2624 24.2259 10.6177 -40.649 23.8881 11.1231 -41.1799 
23.6949 10.4336 -41.1707 29.991 11.2506 -42.2023 29.6425 10.6137 -41.9186 
27.8344 10.8327 -41.608 27.1711 10.7963 -42.045 27.4617 10.231 -42.1269 
26.5281 10.514 -41.7536 23.3194 10.2921 -41.8096 29.3646 10.1904 -42.9095 
26.7081 10.2868 -42.3332 24.1245 11.0987 -43.1516 23.4318 10.4858 -42.9076 
29.0219 10.7539 -43.605 28.5354 10.2598 -44.0872 27.063 11.1932 -44.1012 
26.303 10.9218 -44.0457 25.4482 10.3446 -44.1325 24.889 10.5692 -43.7349 
24.1112 10.4766 -43.554 27.9899 10.662 -44.4089 27.0089 10.5321 -44.5603 
26.0113 10.3303 -44.5603 27.7328 9.81032 -38.0646 27.908 9.18631 -37.6549 
28.2753 9.2572 -38.0829 26.7362 10.0374 -37.9047 27.1573 9.53127 -37.5766 
25.8145 9.94489 -38.1455 26.2892 9.44505 -37.6788 25.7348 9.39218 -38.1694 
28.1174 9.45101 -38.4085 27.725 9.68192 -38.9707 25.3687 9.78252 -38.882 
24.9886 10.277 -39.1449 29.8701 9.50143 -39.6982 30.321 9.40054 -40.1196 
29.3701 9.92074 -40.2124 29.7299 9.16961 -40.012 27.4379 9.21789 -39.9033 
25.272 9.40068 -39.6519 24.8365 9.84241 -40.1216 24.7943 9.25881 -40.1971 
29.9856 9.71033 -40.2749 29.0318 9.44506 -40.5801 29.5016 9.47026 -41.2281 
28.4876 9.3809 -40.909 27.0284 9.75278 -40.57 26.4602 9.38228 -41.1781 
24.2753 9.53342 -40.6659 23.5743 9.69998 -41.2093 29.4642 9.59778 -42.2199 
28.0259 9.80694 -41.5692 27.5396 9.26319 -42.0847 25.9999 9.60246 -41.7336 
26.0833 9.96342 -42.1524 25.7513 9.30063 -42.011 23.0994 9.29436 -41.4399 
22.7914 10.0353 -42.1483 22.1766 9.76865 -42.3057 22.1907 9.55482 -41.7596 
21.7498 9.31366 -41.9512 29.2354 9.23268 -42.7731 26.833 9.54519 -42.4632 
26.0723 9.48533 -42.3986 22.7645 9.98349 -42.831 22.4333 9.39396 -43.0616 
21.9325 9.15381 -42.4889 28.9272 9.63956 -43.4469 28.646 9.30015 -43.9879 
24.8601 10.0309 -44.0237 24.3045 9.87718 -44.0072 23.5486 9.75368 -43.8758 
22.944 9.57015 -43.5778 27.8806 9.57756 -44.5664 27.0779 9.87129 -45.0018 
27.2465 9.37762 -44.9867 26.3371 9.93368 -45.0859 25.6206 9.66252 -44.8648 
24.9086 9.4494 -44.4678 24.034 9.26585 -44.4186 26.6797 9.40311 -45.3062 
26.0265 9.25566 -45.3291 29.0586 8.68678 -37.0089 28.989 8.2532 -36.7408 
29.3424 8.31693 -37.2679 28.6318 8.43879 -36.9162 28.9242 8.51377 -37.2838 
28.4705 8.5181 -37.9099 27.9421 8.62083 -37.5012 27.1079 8.61693 -37.5985 
26.1452 8.94863 -37.952 26.5683 8.37676 -38.2275 28.1161 8.55571 -38.4915 
27.5969 8.53344 -39.1169 25.8701 8.93861 -38.7602 26.3378 8.29523 -38.8242 
29.9616 8.64731 -39.7654 30.3272 8.66304 -39.9405 29.6921 8.55985 -40.113 
27.4023 8.1975 -39.8955 25.798 8.60655 -39.4755 25.2243 8.82853 -40.0135 
25.4721 8.38017 -39.9305 23.9828 8.4594 -39.8531 24.3632 8.36878 -39.8562 
24.019 8.63842 -40.057 23.8404 8.2749 -40.112 29.8114 8.96703 -40.6079 
30.552 8.32865 -40.6197 29.2324 8.48814 -40.5669 28.6445 8.38255 -41.0586 
27.0248 8.72663 -40.5564 26.4915 8.21613 -41.0333 24.8634 8.67587 -40.3959 
23.8764 9.01308 -41.1499 24.3828 8.52547 -40.8702 24.1929 8.44093 -40.2945 
22.8208 8.71894 -41.1238 23.0041 8.19604 -40.801 23.4441 8.6153 -41.0964 
22.2877 8.11506 -41.2219 30.2339 8.37017 -41.4015 29.5528 8.76832 -42.0747 
28.1279 8.62846 -41.5345 27.5412 8.21586 -42.0433 25.9293 8.74592 -41.551 
25.6054 8.46759 -42.1463 23.8659 8.60437 -41.2167 22.1112 8.8631 -41.5526 
21.7453 8.76756 -42.0727 29.241 8.40388 -42.6551 28.9466 8.96331 -43.0348 
28.8326 8.76844 -43.3355 26.8701 8.53664 -42.4564 26.0304 8.63511 -42.5857 
22.3113 8.48475 -42.9378 22.0075 8.42563 -42.39 28.9673 8.4958 -43.5349 
29.1985 8.39838 -43.8323 28.898 8.74556 -43.8643 23.1375 9.08611 -44.4345 
22.5683 8.58427 -43.837 28.9254 8.51478 -44.4476 27.898 8.55872 -44.7221 
27.287 8.77751 -44.8274 26.8593 8.91018 -45.1329 26.8016 8.33655 -45.1259 
25.4546 8.81154 -45.0658 24.7379 8.71928 -44.8193 23.9025 8.84356 -44.9108 
24.5778 8.33082 -45.1551 23.1633 8.79332 -45.1291 22.6344 8.41885 -44.8189 
26.1013 8.37594 -45.384 23.7995 8.27817 -45.4394 22.9442 8.30569 -45.3908 
28.8662 7.39891 -36.3616 29.448 7.56234 -36.8829 28.1105 8.12211 -37.312 
28.2631 7.74683 -36.6577 27.6751 7.26803 -36.9588 29.0291 8.12364 -37.7683 
29.3896 7.41493 -37.7084 27.3613 7.37803 -37.6258 27.3179 7.96369 -38.3023 
25.906 7.72384 -38.2392 26.2608 7.22742 -37.7294 26.5078 7.4998 -37.9642 
25.5553 7.22492 -37.9693 28.7576 7.61312 -38.2964 27.846 7.4573 -38.321 
26.7289 7.77258 -38.3955 27.3724 7.57296 -38.9865 25.9247 8.08191 -39.1526 
25.1798 7.54366 -38.4712 25.034 7.91418 -39.1395 24.5864 7.21362 -38.9907 
30.1089 8.09257 -40.1899 27.3994 7.19917 -39.9108 24.8922 8.23616 -40.1468 
23.9959 7.67315 -39.5736 23.417 7.50139 -40.0659 30.9881 7.78919 -41.0881 
30.7852 7.51375 -40.742 31.2249 7.41825 -41.0628 29.8574 7.61128 -40.6477 
29.1344 7.83835 -40.9191 29.5856 7.27674 -41.0762 27.0511 7.72233 -40.5311 
26.5315 7.21396 -41.0094 23.8662 8.16529 -40.6798 23.0563 7.62209 -40.4262 
21.9607 7.73974 -41.0065 22.2885 7.50674 -40.7233 21.8464 7.49458 -40.9927 
30.8452 7.59415 -41.4615 30.0117 7.92734 -42.0148 30.5562 7.15445 -41.7144 
28.7752 7.41051 -41.3773 28.0119 7.63251 -41.6926 27.5062 7.20786 -42.0022 
25.9476 7.7456 -41.5113 25.3421 7.33274 -42.1498 22.0125 8.26812 -41.8806 
22.2879 7.61134 -42.0286 22.0281 7.46778 -41.2304 29.9882 7.44834 -42.5177 
29.2522 8.10519 -43.2019 29.7268 7.58565 -43.1766 27.0128 7.66473 -42.3842 
26.1648 7.67376 -42.7602 25.2141 7.78712 -42.7926 24.8688 7.40335 -42.638 
25.5248 7.36482 -43.2032 24.6976 7.28985 -42.9973 22.4513 7.46701 -43.077 
29.7101 7.90521 -43.8551 30.0114 7.50274 -43.5265 30.3828 7.32686 -43.9592 
24.982 7.16686 -43.3541 22.4466 7.49981 -44.0939 29.9673 7.55343 -44.5784 
29.2024 7.89456 -45.0092 29.5446 7.22783 -45.0794 28.3177 8.0243 -45.0549 
27.3742 8.07569 -45.0499 25.2139 8.23202 -45.1742 22.625 7.59821 -44.9939 
28.7583 7.38882 -45.3853 27.7586 7.36945 -45.4337 26.7231 7.50646 -45.4405 
25.8138 7.29555 -45.5844 24.8599 7.61303 -45.5087 23.9652 7.51874 -45.6283 
23.2656 7.45207 -45.4687 28.8216 6.79055 -36.0096 29.2822 6.27552 -35.7241 
29.5284 6.55146 -36.3273 28.5321 6.17471 -36.1442 29.482 6.54797 -37.18 
28.1091 6.8634 -36.4943 27.5039 6.70956 -37.0895 29.0252 6.48595 -37.6503 
28.9354 6.88242 -38.1533 28.5157 6.17299 -38.2273 27.0135 6.39984 -37.409 
27.1831 7.11393 -38.1915 25.9924 6.70234 -37.6203 25.4952 6.31808 -37.9998 
33.8157 6.9052 -39.2528 34.1115 6.49295 -38.6306 34.6147 6.6268 -39.1537 
33.0146 6.82865 -39.2067 33.0886 6.35212 -38.4642 32.5084 6.40337 -38.9682 
28.1861 6.74803 -38.5269 27.6471 6.45497 -39.2519 25.0164 6.805 -38.4873 
24.4908 6.22352 -39.0021 34.7055 6.87979 -39.9826 35.2313 6.46548 -39.5868 
35.5016 6.52252 -40.3678 33.8664 7.07261 -40.1942 33.1446 6.93945 -40.0011 
32.5082 6.56314 -39.7289 27.3705 6.30843 -40.0504 23.859 6.47965 -39.3647 
22.7624 6.93215 -40.1827 23.2167 6.64982 -39.6955 22.6814 6.15815 -39.9925 
35.0371 6.78478 -40.8131 35.3809 6.46046 -41.166 34.2765 6.91466 -40.9019 
33.3458 6.8377 -40.9022 32.5852 6.53137 -40.6726 30.9616 7.23259 -41.1733 
30.3348 7.11937 -41.087 27.0376 6.7398 -40.529 26.5168 6.2085 -40.9883 
[...]
CELL_DATA 28732
SCALARS scalars float
LOOKUP_TABLE default
2007 2007 2007 2007 2007 2007 2007 2007 2007 
2007 2007 2007 2007 2007 2007 2007 2007 2007 
2007 2007 2007 2007 2007 2007 2007 2007 2007 
2007 2007 2007 2007 2007 2007 2007 2007 2007 
2007 2007 2007 2007 2007 2007 2007 2007 2007 
2007 2007 2007 2007 2007 2007 2007 2007 2007 
2007 2007 2007 2007 2007 2007 2007 2007 2007 
2007 2007 2007 2007 2007 2007 2007 2007 2007 
2007 2007 2007 2007 2007 2007 2007 2007 2007 
2007 2007 2007 2007 2007 2007 2007 2007 2007 
2007 2007 2007 2007 2007 2007 2007 2007 2007 
2007 2007 2007 2007 2007 2007 2007 2007 2007 
2007 2007 2007 2007 2007 2007 2007 2007 2007 
2007 2007 2007 2007 2007 2007 2007 2007 2007 
2007 2007 2007 2007 2007 2007 2007 2007 2007 
2007 2007 2007 2007 2007 2007 2007 2007 2007 
2007 2007 2007 2007 2007 2007 2007 2007 2007 
2007 2007 2007 2007 2007 2007 2007 2007 2007 
2007 2007 2007 2007 2007 2007 2007 2007 2007 
2007 2007 2007 2007 2007 2007 2007 2007 2007 
2007 2007 2007 2007 2007 2007 2007 2007 2007 
2007 2007 2007 2007 2007 2007 2007 2007 2007 
2007 2007 2007 2007 2007 2007 2007 2007 2007 
2007 2007 2007 2007 2007 2007 2007 2007 2007 
2007 2007 2007 2007 2007 2007 2007 2007 2007 
2007 2007 2007 2007 2007 2007 2007 2007 2007 
2007 2007 2007 2007 2007 2007 2007 2007 2007 
2007 2007 2007 2007 2007 2007 2007 2007 2007 
2007 2007 2007 2007 2007 2007 2007 2007 2007 
2007 2007 2007 2007 2007 2007 2007 2007 2007 
2007 2007 2007 2007 2007 2007 2007 2007 2007 
2007 2007 2007 2007 2007 2007 2007 2007 2007 
2007 2007 2007 2007 2007 2007 2007 2007 2007 
2007 2007 2007 2007 2007 2007 2007 2007 2007 
2007 2007 2007 2007 2007 2007 2007 2007 2007 
2007 2007 2007 2007 2007 2007 2007 2007 2007 
2007 2007 2007 2007 2007 2007 2007 2007 2007 
2007 2007 2007 2007 2007 2007 2007 2007 2007 
2007 2007 2007 2007 2007 2007 2007 2007 2007 
2007 2007 2007 2007 2007 2007 2007 2007 2007 
2007 2007 2007 2007 2007 2007 2007 2007 2007 
2007 2007 2007 2007 2007 2007 2007 2007 2007 
2007 2007 2007 2007 2007 2007 2007 2007 2007 
2007 2007 2007 2007 2007 2007 2007 2007 2007 
2007 2007 2007 2007 2007 2007 2007 2007 2007 
2007 2007 2007 2007 2007 2007 2007 2007 2007 
2007 2007 2007 2007 2007 2007 2007 2007 2007 
2007 2007 2007 2007 2007 2007 2007 2007 2007 
2007 2007 2007 2007 2007 2007 2007 2007 2007 
2007 2007 2007 2007 2007 2007 2007 2007 2007 
2007 2007 2007 2007 2007 2007 2007 2007 2007 
2007 2007 2007 2007 2007 2007 2007 2007 2007 
2007 2007 2007 2007 2007 2007 2007 2007 2007 
2007 2007 2007 2007 2007 2007 2007 2007 2007 
2007 2007 2007 2007 2007 2007 2007 2007 2007 
2007 2007 2007 2007 2007 2007 2007 2007 2007 
2007 2007 2007 2007 2007 2007 2007 2007 2007 
2007 2007 2007 2007 2007 2007 2007 2007 2007 
2007 2007 2007 2007 2007 2007 2007 2007 2007 
2007 2007 2007 2007 2007 2007 2007 2007 2007 
2007 2007 2007 2007 2007 2007 2007 2007 2007 
2007 2007 2007 2007 2007 2007 2007 2007 2007 
2007 2007 2007 2007 2007 2007 2007 2007 2007 
2007 2007 2007 2007 2007 2007 2007 2007 2007 
2007 2007 2007 2007 2007 2007 2007 2007 2007 
2007 2007 2007 2007 2007 2007 2007 2007 2007 
2007 2007 2007 2007 2007 2007 2007 2007 2007 
2007 2007 2007 2007 2007 2007 2007 2007 2007 
2007 2007 2007 2007 2007 2007 2007 2007 2007 
2007 2007 2007 2007 2007 2007 2007 2007 2007 
2007 2007 2007 2007 2007 2007 2007 2007 2007 
2007 2007 2007 2007 2007 2007 2007 2007 2007 
2007 2007 2007 2007 2007 2007 2007 2007 2007 
2007 2007 2007 2007 2007 2007 2007 2007 2007 
2007 2007 2007 2007 2007 2007 2007 2007 2007 
2007 2007 2007 2007 2007 2007 2007 2007 2007 
2007 2007 2007 2007 2007 2007 2007 2007 2007 
2007 2007 2007 2007 2007 2007 2007 2007 2007 
2007 2007 2007 2007 2007 2007 2007 2007 2007 
2007 2007 2007 2007 2007 2007 2007 2007 2007 
2007 2007 2007 2007 2007 2007 2007 2007 2007 
2007 2007 2007 2007 2007 2007 2007 2007 2007 
2007 2007 2007 2007 2007 2007 2007 2007 2007 
2007 2007 2007 2007 2007 2007 2007 2007 2007 
2007 2007 2007 2007 2007 2007 2007 2007 2007 
2007 2007 2007 2007 2007 2007 2007 2007 2007 
2007 2007 2007 2007 2007 2007 2007 2007 2007 
2007 2007 2007 2007 2007 2007 2007 2007 2007 
2007 2007 2007 2007 2007 2007 2007 2007 2007 
2007 2007 2007 2007 2007 2007 2007 2007 2007 
2007 2007 2007 2007 2007 2007 2007 2007 2007 
2007 2007 2007 2007 2007 2007 2007 2007 2007 
2007 2007 2007 2007 2007 2007 2007 2007 2007 
2007 2007 2007 2007 2007 2007 2007 2007 2007 
2007 2007 2007 2007 2007 2007 2007 2007 2007 
2007 2007 2007 2007 2007 2007 2007 2007 2007 
2007 2007 2007 2007 2007 2007 2007 2007 2007 
2007 2007 2007 2007 2007 2007 2007 2007 2007 
2007 2007 2007 2007 2007 2007 2007 2007 2007 
2007 2007 2007 2007 2007 2007 2007 2007 2007 
2007 2007 2007 2007 2007 2007 2007 2007 2007 
2007 2007 2007 2007 2007 2007 2007 2007 2007 
2007 2007 2007 2007 2007 2007 2007 2007 2007 
2007 2007 2007 2007 2007 2007 2007 2007 2007 
2007 2007 2007 2007 2007 2007 2007 2007 2007 
2007 2007 2007 2007 2007 2007 2007 2007 2007 
2007 2007 2007 2007 2007 2007 2007 2007 2007 
2007 2007 2007 2007 2007 2007 2007 2007 2007 
2007 2007 2007 2007 2007 2007 2007 2007 2007 
2007 2007 2007 2007 2007 2007 2007 2007 2007 
2007 2007 2007 2007 2007 2007 2007 2007 2007 
2007 2007 2007 2007 2007 2007 2007 2007 2007 
2007 2007 2007 2007 2007 2007 2007 2007 2007 
2007 2007 2007 2007 2007 2007 2007 2007 2007 
2007 2007 2007 2007 2007 2007 2007 2007 2007 
2007 2007 2007 2007 2007 2007 2007 2007 2007 
2007 2007 2007 2007 2007 2007 2007 2007 2007 
2007 2007 2007 2007 2007 2007 2007 2007 2007 
2007 2007 2007 2007 2007 2007 2007 2007 2007 
2007 2007 2007 2007 2007 2007 2007 2007 2007 
2007 2007 2007 2007 2007 2007 2007 2007 2007 
2007 2007 2007 2007 2007 2007 2007 2007 2007 
2007 2007 2007 2007 2007 2007 2007 2007 2007 
2007 2007 2007 2007 2007 2007 2007 2007 2007 
2007 2007 2007 2007 2007 2007 2007 2007 2007 
2007 2007 2007 2007 2007 2007 2007 2007 2007 
2007 2007 2007 2007 2007 2007 2007 2007 2007 
2007 2007 2007 2007 2007 2007 2007 2007 2007 
2007 2007 2007 2007 2007 2007 2007 2007 2007 
2007 2007 2007 2007 2007 2007 2007 2007 2007 
2007 2007 2007 2007 2007 2007 2007 2007 2007 
2007 2007 2007 2007 2007 2007 2007 2007 2007 
2007 2007 2007 2007 2007 2007 2007 2007 2007 
2007 2007 2007 2007 2007 2007 2007 2007 2007 
2007 2007 2007 2007 2007 2007 2007 2007 2007 
2007 2007 2007 2007 2007 2007 2007 2007 2007 
2007 2007 2007 2007 2007 2007 2007 2007 2007 
2007 2007 2007 2007 2007 2007 2007 2007 2007 
2007 2007 2007 2007 2007 2007 2007 2007 2007 
2007 2007 2007 2007 2007 2007 2007 2007 2007 
2007 2007 2007 2007 2007 2007 2007 2007 2007 
2007 2007 2007 2007 2007 2007 2007 2007 2007 
2007 2007 2007 2007 2007 2007 2007 2007 2007 
2007 2007 2007 2007 2007 2007 2007 2007 2007 
2007 2007 2007 2007 2007 2007 2007 2007 2007 
2007 2007 2007 2007 2007 2007 2007 2007 2007 
2007 2007 2007 2007 2007 2007 2007 2007 2007 
2007 2007 2007 2007 2007 2007 2007 2007 2007 
2007 2007 2007 2007 2007 2007 2007 2007 2007 
2007 2007 2007 2007 2007 2007 2007 2007 2007 
2007 2007 2007 2007 2007 2007 2007 2007 2007 
2007 2007 2007 2007 2007 2007 2007 2007 2007 
2007 2007 2007 2007 2007 2007 2007 2007 2007 
2007 2007 2007 2007 2007 2007 2007 2007 2007 
2007 2007 2007 2007 2007 2007 2007 2007 2007 
2007 2007 2007 2007 2007 2007 2007 2007 2007 
2007 2007 2007 2007 2007 2007 2007 2007 2007 
2007 2007 2007 2007 2007 2007 2007 2007 2007 
2007 2007 2007 2007 2007 2007 2007 2007 2007 
2007 2007 2007 2007 2007 2007 2007 2007 2007 
2007 2007 2007 2007 2007 2007 2007 2007 2007 
2007 2007 2007 2007 2007 2007 2007 2007 2007 
2007 2007 2007 2007 2007 2007 2007 2007 2007 
2007 2007 2007 2007 2007 2007 2007 2007 2007 
2007 2007 2007 2007 2007 2007 2007 2007 2007 
2007 2007 2007 2007 2007 2007 2007 2007 2007 
2007 2007 2007 2007 2007 2007 2007 2007 2007 
2007 2007 2007 2007 2007 2007 2007 2007 2007 
2007 2007 2007 2007 2007 2007 2007 2007 2007 
2007 2007 2007 2007 2007 2007 2007 2007 2007 
2007 2007 2007 2007 2007 2007 2007 2007 2007 
2007 2007 2007 2007 2007 2007 2007 2007 2007 
2007 2007 2007 2007 2007 2007 2007 2007 2007 
2007 2007 2007 2007 2007 2007 2007 2007 2007 
2007 2007 2007 2007 2007 2007 2007 2007 2007 
2007 2007 2007 2007 2007 2007 2007 2007 2007 
2007 2007 2007 2007 2007 2007 2007 2007 2007 
2007 2007 2007 2007 2007 2007 2007 2007 2007 
2007 2007 2007 2007 2007 2007 2007 2007 2007 
2007 2007 2007 2007 2007 2007 2007 2007 2007 
2007 2007 2007 2007 2007 2007 2007 2007 2007 
2007 2007 2007 2007 2007 2007 2007 2007 2007 
2007 2007 2007 2007 2007 2007 2007 2007 2007 
2007 2007 2007 2007 2007 2007 2007 2007 2007 
2007 2007 2007 2007 2007 2007 2007 2007 2007 
2007 2007 2007 2007 2007 2007 2007 2007 2007 
2007 2007 2007 2007 2007 2007 2007 2007 2007 
2007 2007 2007 2007 2007 2007 2007 2007 2007 
2007 2007 2007 2007 2007 2007 2007 2007 2007 
2007 2007 2007 2007 2007 2007 2007 2007 2007 
2007 2007 2007 2007 2007 2007 2007 2007 2007 
2007 2007 2007 2007 2007 2007 2007 2007 2007 
2007 2007 2007 2007 2007 2007 2007 2007 2007 
2007 2007 2007 2007 2007 2007 2007 2007 2007 
2007 2007 2007 2007 2007 2007 2007 2007 2007 
2007 2007 2007 2007 2007 2007 2007 2007 2007 
2007 2007 2007 2007 2007 2007 2007 2007 2007 
2007 2007 2007 2007 2007 2007 2007 2007 2007 
2007 2007 2007 2007 2007 2007 2007 2007 2007 
2007 2007 2007 2007 2007 2007 2007 2007 2007 
2007 2007 2007 2007 2007 2007 2007 2007 2007 
2007 2007 2007 2007 2007 2007 2007 2007 2007 
2007 2007 2007 2007 2007 2007 2007 2007 2007 
2007 2007 2007 2007 2007 2007 2007 2007 2007 
2007 2007 2007 2007 2007 2007 2007 2007 2007 
2007 2007 2007 2007 2007 2007 2007 2007 2007 
2007 2007 2007 2007 2007 2007 2007 2007 2007 
2007 2007 2007 2007 2007 2007 2007 2007 2007 
2007 2007 2007 2007 2007 2007 2007 2007 2007 
2007 2007 2007 2007 2007 2007 2007 2007 2007 
2007 2007 2007 2007 2007 2007 2007 2007 2007 
2007 2007 2007 2007 2007 2007 2007 2007 2007 
2007 2007 2007 2007 2007 2007 2007 2007 2007 
2007 2007 2007 2007 2007 2007 2007 2007 2007 
2007 2007 2007 2007 2007 2007 2007 2007 2007 
2007 2007 2007 2007 2007 2007 2007 2007 2007 
2007 2007 2007 2007 2007 2007 2007 2007 2007 
2007 2007 2007 2007 2007 2007 2007 2007 2007 
2007 2007 2007 2007 2007 2007 2007 2007 2007 
2007 2007 2007 2007 2007 2007 2007 2007 2007 
2007 2007 2007 2007 2007 2007 2007 2007 2007 
2007 2007 2007 2007 2007 2007 2007 2007 2007 
2007 2007 2007 2007 2007 2007 2007 2007 2007 
2007 2007 2007 2007 2007 2007 2007 2007 2007 
2007 2007 2007 2007 2007 2007 2007 2007 2007 
2007 2007 2007 2007 2007 2007 2007 2007 2007 
2007 2007 2007 2007 2007 2007 2007 2007 2007 
2007 2007 2007 2007 2007 2007 2007 2007 2007 
2007 2007 2007 2007 2007 2007 2007 2007 2007 
2007 2007 2007 2007 2007 2007 2007 2007 2007 
2007 2007 2007 2007 2007 2007 2007 2007 2007 
2007 2007 2007 2007 2007 2007 2007 2007 2007 
2007 2007 2007 2007 2007 2007 2007 2007 2007 
2007 2007 2007 2007 2007 2007 2007 2007 2007 
2007 2007 2007 2007 2007 2007 2007 2007 2007 
2007 2007 2007 2007 2007 2007 2007 2007 2007 
2007 2007 2007 2007 2007 2007 2007 2007 2007 
2007 2007 2007 2007 2007 2007 2007 2007 2007 
2007 2007 2007 2007 2007 2007 2007 2007 2007 
2007 2007 2007 2007 2007 2007 2007 2007 2007 
2007 2007 2007 2007 2007 2007 2007 2007 2007 
2007 2007 2007 2007 2007 2007 2007 2007 2007 
2007 2007 2007 2007 2007 2007 2007 2007 2007 
2007 2007 2007 2007 2007 2007 2007 2007 2007 
2007 2007 2007 2007 2007 2007 2007 2007 2007 
2007 2007 2007 2007 2007 2007 2007 2007 2007 
2007 2007 2007 2007 2007 2007 2007 2007 2007 
2007 2007 2007 2007 2007 2007 2007 2007 2007 
2007 2007 2007 2007 2007 2007 2007 2007 2007 
2007 2007 2007 2007 2007 2007 2007 2007 2007 
2007 2007 2007 2007 2007 2007 2007 2007 2007 
2007 2007 2007 2007 2007 2007 2007 2007 2007 
2007 2007 2007 2007 2007 2007 2007 2007 2007 
2007 2007 2007 2007 2007 2007 2007 2007 2007 
2007 2007 2007 2007 2007 2007 2007 2007 2007 
2007 2007 2007 2007 2007 2007 2007 2007 2007 
2007 2007 2007 2007 2007 2007 2007 2007 2007 
2007 2007 2007 2007 2007 2007 2007 2007 2007 
2007 2007 2007 2007 2007 2007 2007 2007 2007 
2007 2007 2007 2007 2007 2007 2007 2007 2007 
2007 2007 2007 2007 2007 2007 2007 2007 2007 
2007 2007 2007 2007 2007 2007 2007 2007 2007 
2007 2007 2007 2007 2007 2007 2007 2007 2007 
2007 2007 2007 2007 2007 2007 2007 2007 2007 
2007 2007 2007 2007 2007 2007 2007 2007 2007 
2007 2007 2007 2007 2007 2007 2007 2007 2007 
2007 2007 2007 2007 2007 2007 2007 2007 2007 
2007 2007 2007 2007 2007 2007 2007 2007 2007 
2007 2007 2007 2007 2007 2007 2007 2007 2007 
2007 2007 2007 2007 2007 2007 2007 2007 2007 
2007 2007 2007 2007 2007 2007 2007 2007 2007 
2007 2007 2007 2007 2007 2007 2007 2007 2007 
2007 2007 2007 2007 2007 2007 2007 2007 2007 
2007 2007 2007 2007 2007 2007 2007 2007 2007 
2007 2007 2007 2007 2007 2007 2007 2007 2007 
2007 2007 2007 2007 2007 2007 2007 2007 2007 
2007 2007 2007 2007 2007 2007 2007 2007 2007 
2007 2007 2007 2007 2007 2007 2007 2007 2007 
2007 2007 2007 2007 2007 2007 2007 2007 2007 
2007 2007 2007 2007 2007 2007 2007 2007 2007 
2007 2007 2007 2007 2007 2007 2007 2007 2007 
2007 2007 2007 2007 2007 2007 2007 2007 2007 
2007 2007 2007 2007 2007 2007 2007 2007 2007 
2007 2007 2007 2007 2007 2007 2007 2007 2007 
2007 2007 2007 2007 2007 2007 2007 2007 2007 
2007 2007 2007 2007 2007 2007 2007 2007 2007 
2007 2007 2007 2007 2007 2007 2007 2007 2007 
2007 2007 2007 2007 2007 2007 2007 2007 2007 
2007 2007 2007 2007 2007 2007 2007 2007 2007 
2007 2007 2007 2007 2007 2007 2007 2007 2007 
2007 2007 2007 2007 2007 2007 2007 2007 2007 
2007 2007 2007 2007 2007 2007 2007 2007 2007 
2007 2007 2007 2007 2007 2007 2007 2007 2007 
2007 2007 2007 2007 2007 2007 2007 2007 2007 
2007 2007 2007 2007 2007 2007 2007 2007 2007 
2007 2007 2007 2007 2007 2007 2007 2007 2007 
2007 2007 2007 2007 2007 2007 2007 2007 2007 
2007 2007 2007 2007 2007 2007 2007 2007 2007 
2007 2007 2007 2007 2007 2007 2007 2007 2007 
2007 2007 2007 2007 2007 2007 2007 2007 2007 
2007 2007 2007 2007 2007 2007 2007 2007 2007 
2007 2007 2007 2007 2007 2007 2007 2007 2007 
2007 2007 2007 2007 2007 2007 2007 2007 2007 
2007 2007 2007 2007 2007 2007 2007 2007 2007 
2007 2007 2007 2007 2007 2007 2007 2007 2007 
2007 2007 2007 2007 2007 2007 2007 2007 2007 
2007 2007 2007 2007 2007 2007 2007 2007 2007 
2007 2007 2007 2007 2007 2007 2007 2007 2007 
2007 2007 2007 2007 2007 2007 2007 2007 2007 
2007 2007 2007 2007 2007 2007 2007 2007 2007 
2007 2007 2007 2007 2007 2007 2007 2007 2007 
2007 2007 2007 2007 2007 2007 2007 2007 2007 
2007 2007 2007 2007 2007 2007 2007 2007 2007 
2007 2007 2007 2007 2007 2007 2007 2007 2007 
2007 2007 2007 2007 2007 2007 2007 2007 2007 
2007 2007 2007 2007 2007 2007 2007 2007 2007 
2007 2007 2007 2007 2007 2007 2007 2007 2007 
2007 2007 2007 2007 2007 2007 2007 2007 2007 
2007 2007 2007 2007 2007 2007 2007 2007 2007 
2007 2007 2007 2007 2007 2007 2007 2007 2007 
2007 2007 2007 2007 2007 2007 2007 2007 2007 
2007 2007 2007 2007 2007 2007 2007 2007 2007 
2007 2007 2007 2007 2007 2007 2007 2007 2007 
2007 2007 2007 2007 2007 2007 2007 2007 2007 
2007 2007 2007 2007 2007 2007 2007 2007 2007 
2007 2007 2007 2007 2007 2007 2007 2007 2007 
2007 2007 2007 2007 2007 2007 2007 2007 2007 
2007 2007 2007 2007 2007 2007 2007 2007 2007 
2007 2007 2007 2007 2007 2007 2007 2007 2007 
2007 2007 2007 2007 2007 2007 2007 2007 2007 
2007 2007 2007 2007 2007 2007 2007 2007 2007 
2007 2007 2007 2007 2007 2007 2007 2007 2007 
2007 2007 2007 2007 2007 2007 2007 2007 2007 
2007 2007 2007 2007 2007 2007 2007 2007 2007 
2007 2007 2007 2007 2007 2007 2007 2007 2007 
2007 2007 2007 2007 2007 2007 2007 2007 2007 
2007 2007 2007 2007 2007 2007 2007 2007 2007 
2007 2007 2007 2007 2007 2007 2007 2007 2007 
2007 2007 2007 2007 2007 2007 2007 2007 2007 
2007 2007 2007 2007 2007 2007 2007 2007 2007 
2007 2007 2007 2007 2007 2007 2007 2007 2007 
2007 2007 2007 2007 2007 2007 2007 2007 2007 
2007 2007 2007 2007 2007 2007 2007 2007 2007 
2007 2007 2007 2007 2007 2007 2007 2007 2007 
2007 2007 2007 2007 2007 2007 2007 2007 2007 
2007 2007 2007 2007 2007 2007 2007 2007 2007 
2007 2007 2007 2007 2007 2007 2007 2007 2007 
2007 2007 2007 2007 2007 2007 2007 2007 2007 
2007 2007 2007 2007 2007 2007 2007 2007 2007 
2007 2007 2007 2007 2007 2007 2007 2007 2007 
2007 2007 2007 2007 2007 2007 2007 2007 2007 
2007 2007 2007 2007 2007 2007 2007 2007 2007 
2007 2007 2007 2007 2007 2007 2007 2007 2007 
2007 2007 2007 2007 2007 2007 2007 2007 2007 
2007 2007 2007 2007 2007 2007 2007 2007 2007 
2007 2007 2007 2007 2007 2007 2007 2007 2007 
2007 2007 2007 2007 2007 2007 2007 2007 2007 
2007 2007 2007 2007 2007 2007 2007 2007 2007 
2007 2007 2007 2007 2007 2007 2007 2007 2007 
2007 2007 2007 2007 2007 2007 2007 2007 2007 
2007 2007 2007 2007 2007 2007 2007 2007 2007 
2007 2007 2007 2007 2007 2007 2007 2007 2007 
2007 2007 2007 2007 2007 2007 2007 2007 2007 
2007 2007 2007 2007 2007 2007 2007 2007 2007 
2007 2007 2007 2007 2007 2007 2007 2007 2007 
2007 2007 2007 2007 2007 2007 2007 2007 2007 
2007 2007 2007 2007 2007 2007 2007 2007 2007 
2007 2007 2007 2007 2007 2007 2007 2007 2007 
2007 2007 2007 2007 2007 2007 2007 2007 2007 
2007 2007 2007 2007 2007 2007 2007 2007 2007 
2007 2007 2007 2007 2007 2007 2007 2007 2007 
2007 2007 2007 2007 2007 2007 2007 2007 2007 
2007 2007 2007 2007 2007 2007 2007 2007 2007 
2007 2007 2007 2007 2007 2007 2007 2007 2007 
2007 2007 2007 2007 2007 2007 2007 2007 2007 
2007 2007 2007 2007 2007 2007 2007 2007 2007 
2007 2007 2007 2007 2007 2007 2007 2007 2007 
2007 2007 2007 2007 2007 2007 2007 2007 2007 
2007 2007 2007 2007 2007 2007 2007 2007 2007 
2007 2007 2007 2007 2007 2007 2007 2007 2007 
2007 2007 2007 2007 2007 2007 2007 2007 2007 
2007 2007 2007 2007 2007 2007 2007 2007 2007 
2007 2007 2007 2007 2007 2007 2007 2007 2007 
2007 2007 2007 2007 2007 2007 2007 2007 2007 
2007 2007 2007 2007 2007 2007 2007 2007 2007 
2007 2007 2007 2007 2007 2007 2007 2007 2007 
2007 2007 2007 2007 2007 2007 2007 2007 2007 
2007 2007 2007 2007 2007 2007 2007 2007 2007 
2007 2007 2007 2007 2007 2007 2007 2007 2007 
2007 2007 2007 2007 2007 2007 2007 2007 2007 
2007 2007 2007 2007 2007 2007 2007 2007 2007 
2007 2007 2007 2007 2007 2007 2007 2007 2007 
2007 2007 2007 2007 2007 2007 2007 2007 2007 
2007 2007 2007 2007 2007 2007 2007 2007 2007 
2007 2007 2007 2007 2007 2007 2007 2007 2007 
2007 2007 2007 2007 2007 2007 2007 2007 2007 
2007 2007 2007 2007 2007 2007 2007 2007 2007 
2007 2007 2007 2007 2007 2007 2007 2007 2007 
2007 2007 2007 2007 2007 2007 2007 2007 2007 
2007 2007 2007 2007 2007 2007 2007 2007 2007 
2007 2007 2007 2007 2007 2007 2007 2007 2007 
2007 2007 2007 2007 2007 2007 2007 2007 2007 
2007 2007 2007 2007 2007 2007 2007 2007 2007 
2007 2007 2007 2007 2007 2007 2007 2007 2007 
2007 2007 2007 2007 2007 2007 2007 2007 2007 
2007 2007 2007 2007 2007 2007 2007 2007 2007 
2007 2007 2007 2007 2007 2007 2007 2007 2007 
2007 2007 2007 2007 2007 2007 2007 2007 2007 
2007 2007 2007 2007 2007 2007 2007 2007 2007 
2007 2007 2007 2007 2007 2007 2007 2007 2007 
2007 2007 2007 2007 2007 2007 2007 2007 2007 
2007 2007 2007 2007 2007 2007 2007 2007 2007 
2007 2007 2007 2007 2007 2007 2007 2007 2007 
2007 2007 2007 2007 2007 2007 2007 2007 2007 
2007 2007 2007 2007 2007 2007 2007 2007 2007 
2007 2007 2007 2007 2007 2007 2007 2007 2007 
2007 2007 2007 2007 2007 2007 2007 2007 2007 
2007 2007 2007 2007 2007 2007 2007 2007 2007 
2007 2007 2007 2007 2007 2007 2007 2007 2007 
2007 2007 2007 2007 2007 2007 2007 2007 2007 
2007 2007 2007 2007 2007 2007 2007 2007 2007 
2007 2007 2007 2007 2007 2007 2007 2007 2007 
2007 2007 2007 2007 2007 2007 2007 2007 2007 
2007 2007 2007 2007 2007 2007 2007 2007 2007 
2007 2007 2007 2007 2007 2007 2007 2007 2007 
2007 2007 2007 2007 2007 2007 2007 2007 2007 
2007 2007 2007 2007 2007 2007 2007 2007 2007 
2007 2007 2007 2007 2007 2007 2007 2007 2007 
2007 2007 2007 2007 2007 2007 2007 2007 2007 
2007 2007 2007 2007 2007 2007 2007 2007 2007 
2007 2007 2007 2007 2007 2007 2007 2007 2007 
2007 2007 2007 2007 2007 2007 2007 2007 2007 
2007 2007 2007 2007 2007 2007 2007 2007 2007 