# vtk DataFile Version 4.0
vtk output
ASCII
DATASET POLYDATA
POINTS 3070 float
-34.1245 25.8332 -29.2141 -33.8339 25.4465 -28.6334 -33.3325 25.5882 -29.1213 
-35.235 25.8722 -29.1284 -34.7094 25.499 -28.4906 -36.2687 25.876 -29.1647 
-35.7201 25.492 -28.4855 -37.2996 25.888 -29.1664 -36.7178 25.4916 -28.504 
-38.3064 25.8713 -29.1968 -37.7302 25.5091 -28.5039 -39.0682 25.7392 -29.2766 
-38.6955 25.4952 -28.5794 -39.4056 25.4133 -28.9363 -33.2862 25.8515 -29.9649 
-32.9003 25.5312 -29.4804 -32.5406 25.4578 -30.1748 -34.1566 26.0305 -30.1863 
-35.0081 26.0302 -30.0272 -36.0124 26.0252 -30.0435 -37.0193 26.0252 -30.0502 
-37.8868 26.0273 -29.8904 -38.7413 25.8286 -30.0979 -39.5239 25.4845 -29.7231 
-33.0508 25.8882 -31.0599 -32.4377 25.5094 -31.3185 -33.95 26.0355 -31.0539 
-34.9719 26.0345 -31.0568 -35.8201 26.0177 -30.8973 -36.7421 25.8889 -31.1277 
-37.8516 25.8367 -30.8359 -38.635 25.5736 -30.9066 -39.2322 25.4458 -30.4877 
-32.9557 25.7768 -31.8454 -32.6476 25.4458 -32.1299 -33.7062 25.8926 -31.9292 
-34.7375 25.887 -31.9647 -35.8601 25.8179 -31.8572 -36.6299 25.5691 -31.9664 
-37.3585 25.4956 -31.6819 -38.138 25.426 -31.42 -33.3142 25.5293 -32.5044 
-34.2556 25.5271 -32.6127 -35.2799 25.4946 -32.5882 -36.1131 25.4278 -32.4441 
-37.1964 24.7939 -27.2413 -36.7903 24.2134 -26.722 -36.4304 24.5512 -27.178 
-38.2582 24.8508 -27.1272 -37.7149 24.3146 -26.505 -39.2505 24.8611 -27.133 
-38.7247 24.5084 -26.4897 -40.2686 24.8733 -27.1338 -39.7085 24.5079 -26.4952 
-41.2828 24.8848 -27.1706 -40.7313 24.507 -26.4958 -42.0255 24.7723 -27.2645 
-41.6931 24.5023 -26.5883 -42.3547 24.4455 -26.9382 -33.2534 24.7647 -27.9795 
-33.1315 24.1576 -27.6782 -32.7271 24.4987 -28.2007 -34.0886 25.012 -28.0893 
-33.8119 24.4812 -27.63 -35.2355 24.9916 -27.9816 -34.7083 24.3431 -27.5025 
-36.2817 24.9886 -27.8381 -35.7109 24.4895 -27.4262 -37.1525 25.1482 -27.9808 
-38.0029 25.1313 -27.863 -39.0891 25.1101 -28.0564 -40.0573 25.0098 -28.0158 
-41.0419 25.0105 -28.0345 -41.9267 24.8806 -28.0424 -42.5413 24.5195 -27.7617 
-32.9398 25.1007 -28.8827 -32.3148 24.4578 -28.9151 -40.0465 25.1187 -29.1282 
-40.8502 24.9984 -28.8829 -41.6982 24.8271 -29.0898 -42.4902 24.4933 -28.7464 
-32.1344 24.8624 -29.7874 -31.9452 24.4787 -29.5196 -31.5692 24.4303 -30.1827 
-39.8649 25.1354 -30.2712 -40.8194 24.8258 -30.0259 -41.6219 24.5731 -29.9147 
-42.2058 24.4358 -29.5162 -31.9531 24.9933 -30.7859 -31.4674 24.4852 -31.3039 
-38.9703 25.1765 -31.1996 -39.877 24.8189 -31.1503 -40.6255 24.2987 -31.1312 
-41.1878 24.4284 -30.4806 -32.0901 25.0034 -31.9583 -31.4859 24.5002 -32.3468 
-36.7953 25.2087 -32.3804 -37.8391 25.0105 -32.1561 -38.9195 24.7998 -31.9295 
-39.5442 24.5778 -31.9084 -40.0413 24.3688 -31.6755 -31.9996 24.8959 -33.1716 
-31.3141 24.5764 -33.1863 -32.7921 25.1602 -32.8522 -33.7068 25.0331 -33.2429 
-34.7427 25.022 -33.1 -35.8623 25.0053 -32.9768 -36.8615 24.8214 -32.9548 
-37.5195 24.5904 -32.9402 -38.2971 24.341 -32.6427 -39.1876 24.223 -32.3627 
-31.2395 24.7487 -33.8523 -30.7964 24.4429 -33.6553 -30.6783 24.4962 -34.0783 
-31.8717 24.863 -34.0698 -32.822 24.8633 -33.8513 -33.6055 24.3292 -34.1138 
-34.2762 24.5161 -33.6436 -35.2411 24.3509 -33.5559 -36.2426 24.362 -33.432 
-37.1439 24.2515 -33.3741 -31.0222 24.3754 -34.4774 -32.2335 24.5433 -34.5842 
-33.0126 24.358 -34.5666 -38.3285 23.9541 -26.0162 -37.8165 23.2265 -25.7304 
-37.6226 23.673 -26.0769 -39.2449 24.0214 -26.0048 -38.7297 23.3403 -25.5223 
-40.2292 24.0022 -26.0119 -39.743 23.5008 -25.5351 -41.235 23.9922 -26.0182 
-40.7125 23.4878 -25.5207 -42.3098 24.003 -26.1767 -41.7271 23.4922 -25.5056 
-43.3231 23.8854 -26.1611 -42.9114 23.3997 -25.4928 -44.0686 23.7486 -26.1967 
-43.8279 23.5012 -25.7335 -44.3519 23.2591 -25.9666 -35.3439 23.9227 -27.025 
-34.9398 23.1292 -26.7 -34.5671 23.6447 -27.0748 -36.0975 24.1633 -26.9469 
-36.0121 23.5949 -26.6403 -36.8809 23.4497 -26.3284 -42.9144 24.1522 -27.0271 
-43.7146 23.8257 -27.0553 -44.5521 23.2916 -26.6394 -32.9796 23.3158 -27.6228 
-32.4889 23.7521 -28.1691 -33.756 23.5365 -27.3291 -43.1221 24.0078 -28.162 
-43.6895 23.5737 -27.9518 -44.2151 23.4067 -27.4112 -31.849 23.9796 -29.1337 
-31.9982 23.1457 -28.5584 -31.4852 23.4194 -29.1625 -42.8503 24.0046 -29.3794 
-43.5462 23.5131 -28.8129 -31.1725 23.8374 -29.844 -31.0058 23.1458 -29.5893 
-30.7033 23.4692 -30.2538 -41.9562 24.1902 -30.2182 -42.7041 23.8244 -30.2955 
-43.4369 23.5018 -29.7679 -30.8725 23.9761 -30.9179 -30.335 23.4235 -30.9713 
-41.2529 24.0728 -30.9191 -41.9024 23.8147 -30.9312 -42.4749 23.4951 -30.8979 
-43.1772 23.1845 -30.51 -30.297 23.7981 -31.9523 -29.9751 23.455 -31.5542 
-29.5601 23.409 -32.2379 -30.9762 24.138 -31.89 -39.803 24.111 -32.1353 
-40.3921 23.7633 -31.9074 -41.2248 23.4289 -31.5738 -41.9825 23.2511 -31.3231 
-29.9574 23.7965 -32.905 -29.4096 23.4735 -33.3363 -30.7305 24.1545 -32.8811 
-37.8007 24.107 -33.1642 -38.3707 23.6708 -33.0387 -39.1255 23.4176 -32.7539 
-40.0373 23.3639 -32.4088 -30.1781 23.9886 -33.8445 -29.5843 23.4146 -34.1643 
-34.0668 24.0934 -34.045 -34.6476 23.9207 -34.0176 -35.3868 23.6431 -33.964 
-36.0783 23.4348 -33.7355 -36.972 23.4798 -33.571 -38.0143 23.3752 -33.4137 
-30.2005 23.6618 -34.6415 -30.8587 23.8123 -34.9954 -30.5475 23.3997 -35.2248 
-31.7206 24.0086 -35.0634 -32.6761 23.9415 -35.0848 -33.3621 23.5104 -34.9679 
-34.1024 23.3337 -34.4663 -35.1331 23.1981 -34.3079 -31.3419 23.4829 -35.5077 
-32.295 23.4847 -35.6003 -32.9944 23.2965 -35.5556 -42.2149 22.823 -24.1975 
-42.2417 22.397 -23.7643 -41.6482 22.397 -24.1601 -43.0686 22.7071 -24.179 
-42.798 22.5155 -23.7858 -43.3151 22.1768 -24.2197 -39.3298 22.9439 -25.063 
-38.9231 22.168 -24.7164 -38.6019 22.6696 -25.0929 -40.2357 22.9933 -25.0317 
-39.8287 22.4919 -24.7032 -41.2461 22.9801 -24.8358 -40.7961 22.2604 -24.452 
-42.1452 23.1545 -24.9589 -42.9836 22.9224 -24.8041 -43.4994 22.4594 -24.7142 
-37.1909 23.0778 -25.9634 -36.9291 22.3277 -25.7068 -36.5908 22.6354 -26.0761 
-37.8389 22.4416 -25.3467 -43.8041 22.6257 -25.5297 -44.6197 22.6153 -26.2399 
-34.1293 23.0701 -26.9288 -34.2054 22.2913 -26.6996 -33.616 22.5916 -27.0559 
-34.9182 22.4219 -26.5095 -35.7655 22.5157 -26.353 -45.0675 22.6081 -26.7498 
-44.942 22.9029 -27.3773 -45.2897 22.3874 -27.2608 -32.9189 22.3169 -27.482 
-32.4386 22.768 -27.987 -44.2004 23.1868 -28.1461 -44.8453 22.7839 -28.2845 
-45.2761 22.5393 -27.8242 -32.0189 22.5391 -28.378 -31.5038 22.6434 -28.8927 
-44.1469 23.0095 -29.1839 -44.7498 22.2261 -28.9062 -45.1094 22.4746 -28.3093 
-30.9947 22.5607 -29.4046 -30.4916 22.7148 -30.0825 -43.8394 23.0341 -30.0558 
-44.2935 22.5329 -29.8462 -29.8443 22.9796 -31.1496 -30.0067 22.4911 -30.5221 
-29.4971 22.4606 -31.0172 -42.6087 22.5484 -31.1946 -43.2762 22.2898 -30.7645 
-43.8741 22.4609 -30.3845 -29.0087 22.8694 -31.9814 -28.9691 22.4739 -31.5253 
-28.4412 22.4866 -32.0367 -40.8228 23.0615 -32.1373 -41.4086 22.6085 -32.0373 
-41.9246 22.5419 -31.7179 -28.2477 22.8292 -32.9744 -27.908 22.506 -32.5731 
-27.5282 22.4312 -33.2143 -28.9197 23.1555 -32.9017 -38.8365 23.0537 -33.1488 
-39.4726 22.6022 -33.0332 -40.155 22.3851 -32.7609 -41.0768 22.3081 -32.4205 
-28.0583 22.7706 -33.9811 -27.5713 22.4374 -34.1379 -28.897 23.085 -33.9271 
-35.8088 23.0461 -34.106 -36.3442 22.3546 -34.1154 -36.9594 22.3268 -33.662 
-37.9794 22.4499 -33.5634 -39.0738 22.3279 -33.3898 -28.1059 22.5435 -34.6357 
-28.5705 22.4166 -35.2027 -28.9098 22.79 -34.9279 -29.8235 23.1437 -35.0052 
-33.684 22.6491 -34.9909 -34.1712 22.3909 -34.7531 -34.9799 22.5391 -34.6156 
-35.7498 22.5963 -34.4212 -29.1765 22.546 -35.6605 -29.4664 22.509 -36.4116 
-29.9215 22.8601 -36.0033 -30.917 23.098 -36.0128 -32.0291 23.1114 -36.2244 
-32.885 22.9369 -36.1844 -33.4741 22.5928 -35.7301 -30.0246 22.7466 -36.8606 
-29.6701 22.4426 -37.1695 -30.7347 22.8495 -36.9155 -31.7237 22.8493 -36.9542 
-32.6634 22.7391 -36.9334 -33.4079 22.4144 -36.6984 -30.3251 22.505 -37.512 
-31.2869 22.5059 -37.6062 -32.3009 22.4769 -37.5809 -33.0996 22.3659 -37.3843 
-41.1566 21.7146 -24.0866 -40.7686 21.2228 -23.7461 -40.5534 21.6707 -24.0666 
-42.1134 22.0778 -23.9253 -41.5011 21.1089 -24.1481 -42.7143 22.0214 -23.9305 
-38.1586 22.1007 -24.9669 -37.9274 21.3544 -24.7159 -37.5445 21.6738 -25.0732 
-38.7625 21.2795 -24.3898 -39.7809 21.7366 -24.3333 -42.0298 21.6843 -24.3416 
-43.0551 21.6215 -24.4745 -43.3959 21.781 -25.0523 -36.1523 22.0144 -25.9759 
-36.1053 21.3439 -25.741 -35.6253 21.5338 -26.0907 -36.8401 21.392 -25.3472 
-43.3694 21.7792 -25.9692 -42.8217 21.2518 -26.1018 -42.8345 21.2474 -25.5527 
-44.1596 22.1166 -26.2507 -34.236 21.2489 -26.7512 -33.5564 21.7919 -27.0384 
-34.962 21.5462 -26.4072 -43.1593 21.476 -26.5103 -43.9725 21.7841 -26.902 
-43.5141 21.1311 -27.2015 -44.8374 22.1578 -26.8323 -31.9218 22.0671 -28.1668 
-32.0303 21.2398 -27.642 -31.3588 21.5015 -28.1341 -33.1615 21.263 -27.371 
-44.1291 21.5432 -27.6464 -44.8801 22.0729 -27.8169 -44.4698 21.5113 -28.241 
-30.9908 21.9611 -28.9969 -30.8979 21.2958 -28.388 -30.5163 21.3111 -28.9819 
-44.8664 21.4067 -28.677 -45.0287 21.7247 -29.2239 -45.3114 21.1426 -29.1214 
-30.0394 21.9612 -30.0109 -29.8652 21.1218 -29.5488 -29.4781 21.5516 -30.1619 
-35.1723 21.7752 -29.9368 -34.7214 21.5122 -30.0109 -35.0642 21.247 -29.7124 
-35.7622 21.5786 -29.6601 -35.9652 21.8396 -30.0233 -36.6789 21.4341 -29.5023 
-37.0034 21.8339 -30.0615 -37.6774 21.5966 -29.6194 -37.8041 21.7738 -30.1618 
-38.3203 21.5157 -29.9262 -44.6514 21.5786 -30.0847 -45.1961 21.3272 -29.6552 
-29.0051 21.9808 -31.0124 -29.0509 21.4899 -30.4959 -28.5185 21.4655 -30.9952 
-35.0203 21.4761 -30.49 -36.2951 21.414 -30.5775 -37.3534 21.4318 -30.4826 
-38.2461 21.3013 -30.3925 -43.0134 21.9678 -31.0681 -43.5236 21.3069 -31.1894 
-43.9637 21.5551 -30.7209 -27.9336 21.9888 -32.0373 -27.9776 21.46 -31.5173 
-27.4487 21.475 -32.025 -41.8624 22.0262 -32.1517 -42.4538 21.7252 -31.9115 
-43.0019 21.4746 -31.5682 -27.1149 21.8666 -32.8553 -26.93 21.4855 -32.5609 
-26.5348 21.4401 -33.2202 -39.896 22.0099 -33.1402 -40.2985 21.605 -32.9964 
[...]
CELL_DATA 6144
SCALARS scalars float
LOOKUP_TABLE default
1033 1033 1033 1033 1033 1033 1033 1033 1033 
1033 1033 1033 1033 1033 1033 1033 1033 1033 
1033 1033 1033 1033 1033 1033 1033 1033 1033 
1033 1033 1033 1033 1033 1033 1033 1033 1033 
1033 1033 1033 1033 1033 1033 1033 1033 1033 
1033 1033 1033 1033 1033 1033 1033 1033 1033 
1033 1033 1033 1033 1033 1033 1033 1033 1033 
1033 1033 1033 1033 1033 1033 1033 1033 1033 
1033 1033 1033 1033 1033 1033 1033 1033 1033 
1033 1033 1033 1033 1033 1033 1033 1033 1033 
1033 1033 1033 1033 1033 1033 1033 1033 1033 
1033 1033 1033 1033 1033 1033 1033 1033 1033 
1033 1033 1033 1033 1033 1033 1033 1033 1033 
1033 1033 1033 1033 1033 1033 1033 1033 1033 
1033 1033 1033 1033 1033 1033 1033 1033 1033 
1033 1033 1033 1033 1033 1033 1033 1033 1033 
1033 1033 1033 1033 1033 1033 1033 1033 1033 
1033 1033 1033 1033 1033 1033 1033 1033 1033 
1033 1033 1033 1033 1033 1033 1033 1033 1033 
1033 1033 1033 1033 1033 1033 1033 1033 1033 
1033 1033 1033 1033 1033 1033 1033 1033 1033 
1033 1033 1033 1033 1033 1033 1033 1033 1033 
1033 1033 1033 1033 1033 1033 1033 1033 1033 
1033 1033 1033 1033 1033 1033 1033 1033 1033 
1033 1033 1033 1033 1033 1033 1033 1033 1033 
1033 1033 1033 1033 1033 1033 1033 1033 1033 
1033 1033 1033 1033 1033 1033 1033 1033 1033 
1033 1033 1033 1033 1033 1033 1033 1033 1033 
1033 1033 1033 1033 1033 1033 1033 1033 1033 
1033 1033 1033 1033 1033 1033 1033 1033 1033 
1033 1033 1033 1033 1033 1033 1033 1033 1033 
1033 1033 1033 1033 1033 1033 1033 1033 1033 
1033 1033 1033 1033 1033 1033 1033 1033 1033 
1033 1033 1033 1033 1033 1033 1033 1033 1033 
1033 1033 1033 1033 1033 1033 1033 1033 1033 
1033 1033 1033 1033 1033 1033 1033 1033 1033 
1033 1033 1033 1033 1033 1033 1033 1033 1033 
1033 1033 1033 1033 1033 1033 1033 1033 1033 
1033 1033 1033 1033 1033 1033 1033 1033 1033 
1033 1033 1033 1033 1033 1033 1033 1033 1033 
1033 1033 1033 1033 1033 1033 1033 1033 1033 
1033 1033 1033 1033 1033 1033 1033 1033 1033 
1033 1033 1033 1033 1033 1033 1033 1033 1033 
1033 1033 1033 1033 1033 1033 1033 1033 1033 
1033 1033 1033 1033 1033 1033 1033 1033 1033 
1033 1033 1033 1033 1033 1033 1033 1033 1033 
1033 1033 1033 1033 1033 1033 1033 1033 1033 
1033 1033 1033 1033 1033 1033 1033 1033 1033 
1033 1033 1033 1033 1033 1033 1033 1033 1033 
1033 1033 1033 1033 1033 1033 1033 1033 1033 
1033 1033 1033 1033 1033 1033 1033 1033 1033 
1033 1033 1033 1033 1033 1033 1033 1033 1033 
1033 1033 1033 1033 1033 1033 1033 1033 1033 
1033 1033 1033 1033 1033 1033 1033 1033 1033 
1033 1033 1033 1033 1033 1033 1033 1033 1033 
1033 1033 1033 1033 1033 1033 1033 1033 1033 
1033 1033 1033 1033 1033 1033 1033 1033 1033 
1033 1033 1033 1033 1033 1033 1033 1033 1033 
1033 1033 1033 1033 1033 1033 1033 1033 1033 
1033 1033 1033 1033 1033 1033 1033 1033 1033 
1033 1033 1033 1033 1033 1033 1033 1033 1033 
1033 1033 1033 1033 1033 1033 1033 1033 1033 
1033 1033 1033 1033 1033 1033 1033 1033 1033 
1033 1033 1033 1033 1033 1033 1033 1033 1033 
1033 1033 1033 1033 1033 1033 1033 1033 1033 
1033 1033 1033 1033 1033 1033 1033 1033 1033 
1033 1033 1033 1033 1033 1033 1033 1033 1033 
1033 1033 1033 1033 1033 1033 1033 1033 1033 
1033 1033 1033 1033 1033 1033 1033 1033 1033 
1033 1033 1033 1033 1033 1033 1033 1033 1033 
1033 1033 1033 1033 1033 1033 1033 1033 1033 
1033 1033 1033 1033 1033 1033 1033 1033 1033 
1033 1033 1033 1033 1033 1033 1033 1033 1033 
1033 1033 1033 1033 1033 1033 1033 1033 1033 
1033 1033 1033 1033 1033 1033 1033 1033 1033 
1033 1033 1033 1033 1033 1033 1033 1033 1033 
1033 1033 1033 1033 1033 1033 1033 1033 1033 
1033 1033 1033 1033 1033 1033 1033 1033 1033 
1033 1033 1033 1033 1033 1033 1033 1033 1033 
1033 1033 1033 1033 1033 1033 1033 1033 1033 
1033 1033 1033 1033 1033 1033 1033 1033 1033 
1033 1033 1033 1033 1033 1033 1033 1033 1033 
1033 1033 1033 1033 1033 1033 1033 1033 1033 
1033 1033 1033 1033 1033 1033 1033 1033 1033 
1033 1033 1033 1033 1033 1033 1033 1033 1033 
1033 1033 1033 1033 1033 1033 1033 1033 1033 
1033 1033 1033 1033 1033 1033 1033 1033 1033 
1033 1033 1033 1033 1033 1033 1033 1033 1033 
1033 1033 1033 1033 1033 1033 1033 1033 1033 
1033 1033 1033 1033 1033 1033 1033 1033 1033 
1033 1033 1033 1033 1033 1033 1033 1033 1033 
1033 1033 1033 1033 1033 1033 1033 1033 1033 
1033 1033 1033 1033 1033 1033 1033 1033 1033 
1033 1033 1033 1033 1033 1033 1033 1033 1033 
1033 1033 1033 1033 1033 1033 1033 1033 1033 
1033 1033 1033 1033 1033 1033 1033 1033 1033 
1033 1033 1033 1033 1033 1033 1033 1033 1033 
1033 1033 1033 1033 1033 1033 1033 1033 1033 
1033 1033 1033 1033 1033 1033 1033 1033 1033 
1033 1033 1033 1033 1033 1033 1033 1033 1033 
1033 1033 1033 1033 1033 1033 1033 1033 1033 
1033 1033 1033 1033 1033 1033 1033 1033 1033 
1033 1033 1033 1033 1033 1033 1033 1033 1033 
1033 1033 1033 1033 1033 1033 1033 1033 1033 
1033 1033 1033 1033 1033 1033 1033 1033 1033 
1033 1033 1033 1033 1033 1033 1033 1033 1033 
1033 1033 1033 1033 1033 1033 1033 1033 1033 
1033 1033 1033 1033 1033 1033 1033 1033 1033 
1033 1033 1033 1033 1033 1033 1033 1033 1033 
1033 1033 1033 1033 1033 1033 1033 1033 1033 
1033 1033 1033 1033 1033 1033 1033 1033 1033 
1033 1033 1033 1033 1033 1033 1033 1033 1033 
1033 1033 1033 1033 1033 1033 1033 1033 1033 
1033 1033 1033 1033 1033 1033 1033 1033 1033 
1033 1033 1033 1033 1033 1033 1033 1033 1033 
1033 1033 1033 1033 1033 1033 1033 1033 1033 
1033 1033 1033 1033 1033 1033 1033 1033 1033 
1033 1033 1033 1033 1033 1033 1033 1033 1033 
1033 1033 1033 1033 1033 1033 1033 1033 1033 
1033 1033 1033 1033 1033 1033 1033 1033 1033 
1033 1033 1033 1033 1033 1033 1033 1033 1033 
1033 1033 1033 1033 1033 1033 1033 1033 1033 
1033 1033 1033 1033 1033 1033 1033 1033 1033 
1033 1033 1033 1033 1033 1033 1033 1033 1033 
1033 1033 1033 1033 1033 1033 1033 1033 1033 
1033 1033 1033 1033 1033 1033 1033 1033 1033 
1033 1033 1033 1033 1033 1033 1033 1033 1033 
1033 1033 1033 1033 1033 1033 1033 1033 1033 
1033 1033 1033 1033 1033 1033 1033 1033 1033 
1033 1033 1033 1033 1033 1033 1033 1033 1033 
1033 1033 1033 1033 1033 1033 1033 1033 1033 
1033 1033 1033 1033 1033 1033 1033 1033 1033 
1033 1033 1033 1033 1033 1033 1033 1033 1033 
1033 1033 1033 1033 1033 1033 1033 1033 1033 
1033 1033 1033 1033 1033 1033 1033 1033 1033 
1033 1033 1033 1033 1033 1033 1033 1033 1033 
1033 1033 1033 1033 1033 1033 1033 1033 1033 
1033 1033 1033 1033 1033 1033 1033 1033 1033 
1033 1033 1033 1033 1033 1033 1033 1033 1033 
1033 1033 1033 1033 1033 1033 1033 1033 1033 
1033 1033 1033 1033 1033 1033 1033 1033 1033 
1033 1033 1033 1033 1033 1033 1033 1033 1033 
1033 1033 1033 1033 1033 1033 1033 1033 1033 
1033 1033 1033 1033 1033 1033 1033 1033 1033 
1033 1033 1033 1033 1033 1033 1033 1033 1033 
1033 1033 1033 1033 1033 1033 1033 1033 1033 
1033 1033 1033 1033 1033 1033 1033 1033 1033 
1033 1033 1033 1033 1033 1033 1033 1033 1033 
1033 1033 1033 1033 1033 1033 1033 1033 1033 
1033 1033 1033 1033 1033 1033 1033 1033 1033 
1033 1033 1033 1033 1033 1033 1033 1033 1033 
1033 1033 1033 1033 1033 1033 1033 1033 1033 
1033 1033 1033 1033 1033 1033 1033 1033 1033 
1033 1033 1033 1033 1033 1033 1033 1033 1033 
1033 1033 1033 1033 1033 1033 1033 1033 1033 
1033 1033 1033 1033 1033 1033 1033 1033 1033 
1033 1033 1033 1033 1033 1033 1033 1033 1033 
1033 1033 1033 1033 1033 1033 1033 1033 1033 
1033 1033 1033 1033 1033 1033 1033 1033 1033 
1033 1033 1033 1033 1033 1033 1033 1033 1033 
1033 1033 1033 1033 1033 1033 1033 1033 1033 
1033 1033 1033 1033 1033 1033 1033 1033 1033 
1033 1033 1033 1033 1033 1033 1033 1033 1033 
1033 1033 1033 1033 1033 1033 1033 1033 1033 
1033 1033 1033 1033 1033 1033 1033 1033 1033 
1033 1033 1033 1033 1033 1033 1033 1033 1033 
1033 1033 1033 1033 1033 1033 1033 1033 1033 
1033 1033 1033 1033 1033 1033 1033 1033 1033 
1033 1033 1033 1033 1033 1033 1033 1033 1033 
1033 1033 1033 1033 1033 1033 1033 1033 1033 
1033 1033 1033 1033 1033 1033 1033 1033 1033 
1033 1033 1033 1033 1033 1033 1033 1033 1033 
1033 1033 1033 1033 1033 1033 1033 1033 1033 
1033 1033 1033 1033 1033 1033 1033 1033 1033 
1033 1033 1033 1033 1033 1033 1033 1033 1033 
1033 1033 1033 1033 1033 1033 1033 1033 1033 
1033 1033 1033 1033 1033 1033 1033 1033 1033 
1033 1033 1033 1033 1033 1033 1033 1033 1033 
1033 1033 1033 1033 1033 1033 1033 1033 1033 
1033 1033 1033 1033 1033 1033 1033 1033 1033 
1033 1033 1033 1033 1033 1033 1033 1033 1033 
1033 1033 1033 1033 1033 1033 1033 1033 1033 
1033 1033 1033 1033 1033 1033 1033 1033 1033 
1033 1033 1033 1033 1033 1033 1033 1033 1033 
1033 1033 1033 1033 1033 1033 1033 1033 1033 
1033 1033 1033 1033 1033 1033 1033 1033 1033 
1033 1033 1033 1033 1033 1033 1033 1033 1033 
1033 1033 1033 1033 1033 1033 1033 1033 1033 
1033 1033 1033 1033 1033 1033 1033 1033 1033 
1033 1033 1033 1033 1033 1033 1033 1033 1033 
1033 1033 1033 1033 1033 1033 1033 1033 1033 
1033 1033 1033 1033 1033 1033 1033 1033 1033 
1033 1033 1033 1033 1033 1033 1033 1033 1033 
1033 1033 1033 1033 1033 1033 1033 1033 1033 
1033 1033 1033 1033 1033 1033 1033 1033 1033 
1033 1033 1033 1033 1033 1033 1033 1033 1033 
1033 1033 1033 1033 1033 1033 1033 1033 1033 
1033 1033 1033 1033 1033 1033 1033 1033 1033 
1033 1033 1033 1033 1033 1033 1033 1033 1033 
1033 1033 1033 1033 1033 1033 1033 1033 1033 
1033 1033 1033 1033 1033 1033 1033 1033 1033 
1033 1033 1033 1033 1033 1033 1033 1033 1033 
1033 1033 1033 1033 1033 1033 1033 1033 1033 
1033 1033 1033 1033 1033 1033 1033 1033 1033 
1033 1033 1033 1033 1033 1033 1033 1033 1033 
1033 1033 1033 1033 1033 1033 1033 1033 1033 
1033 1033 1033 1033 1033 1033 1033 1033 1033 
1033 1033 1033 1033 1033 1033 1033 1033 1033 
1033 1033 1033 1033 1033 1033 1033 1033 1033 
1033 1033 1033 1033 1033 1033 1033 1033 1033 
1033 1033 1033 1033 1033 1033 1033 1033 1033 
1033 1033 1033 1033 1033 1033 1033 1033 1033 
1033 1033 1033 1033 1033 1033 1033 1033 1033 
1033 1033 1033 1033 1033 1033 1033 1033 1033 
1033 1033 1033 1033 1033 1033 1033 1033 1033 
1033 1033 1033 1033 1033 1033 1033 1033 1033 
1033 1033 1033 1033 1033 1033 1033 1033 1033 
1033 1033 1033 1033 1033 1033 1033 1033 1033 
1033 1033 1033 1033 1033 1033 1033 1033 1033 
1033 1033 1033 1033 1033 1033 1033 1033 1033 
1033 1033 1033 1033 1033 1033 1033 1033 1033 
1033 1033 1033 1033 1033 1033 1033 1033 1033 
1033 1033 1033 1033 1033 1033 1033 1033 1033 
1033 1033 1033 1033 1033 1033 1033 1033 1033 
1033 1033 1033 1033 1033 1033 1033 1033 1033 
1033 1033 1033 1033 1033 1033 1033 1033 1033 
1033 1033 1033 1033 1033 1033 1033 1033 1033 
1033 1033 1033 1033 1033 1033 1033 1033 1033 
1033 1033 1033 1033 1033 1033 1033 1033 1033 
1033 1033 1033 1033 1033 1033 1033 1033 1033 
1033 1033 1033 1033 1033 1033 1033 1033 1033 
1033 1033 1033 1033 1033 1033 1033 1033 1033 
1033 1033 1033 1033 1033 1033 1033 1033 1033 
1033 1033 1033 1033 1033 1033 1033 1033 1033 
1033 1033 1033 1033 1033 1033 1033 1033 1033 
1033 1033 1033 1033 1033 1033 1033 1033 1033 
1033 1033 1033 1033 1033 1033 1033 1033 1033 
1033 1033 1033 1033 1033 1033 1033 1033 1033 
1033 1033 1033 1033 1033 1033 1033 1033 1033 
1033 1033 1033 1033 1033 1033 1033 1033 1033 
1033 1033 1033 1033 1033 1033 1033 1033 1033 
1033 1033 1033 1033 1033 1033 1033 1033 1033 
1033 1033 1033 1033 1033 1033 1033 1033 1033 
1033 1033 1033 1033 1033 1033 1033 1033 1033 
1033 1033 1033 1033 1033 1033 1033 1033 1033 
1033 1033 1033 1033 1033 1033 1033 1033 1033 
1033 1033 1033 1033 1033 1033 1033 1033 1033 
1033 1033 1033 1033 1033 1033 1033 1033 1033 
1033 1033 1033 1033 1033 1033 1033 1033 1033 
1033 1033 1033 1033 1033 1033 1033 1033 1033 
1033 1033 1033 1033 1033 1033 1033 1033 1033 
1033 1033 1033 1033 1033 1033 1033 1033 1033 
1033 1033 1033 1033 1033 1033 1033 1033 1033 
1033 1033 1033 1033 1033 1033 1033 1033 1033 
1033 1033 1033 1033 1033 1033 1033 1033 1033 
1033 1033 1033 1033 1033 1033 1033 1033 1033 
1033 1033 1033 1033 1033 1033 1033 1033 1033 
1033 1033 1033 1033 1033 1033 1033 1033 1033 
1033 1033 1033 1033 1033 1033 1033 1033 1033 
1033 1033 1033 1033 1033 1033 1033 1033 1033 
1033 1033 1033 1033 1033 1033 1033 1033 1033 
1033 1033 1033 1033 1033 1033 1033 1033 1033 
1033 1033 1033 1033 1033 1033 1033 1033 1033 
1033 1033 1033 1033 1033 1033 1033 1033 1033 
1033 1033 1033 1033 1033 1033 1033 1033 1033 
1033 1033 1033 1033 1033 1033 1033 1033 1033 
1033 1033 1033 1033 1033 1033 1033 1033 1033 
1033 1033 1033 1033 1033 1033 1033 1033 1033 
1033 1033 1033 1033 1033 1033 1033 1033 1033 
1033 1033 1033 1033 1033 1033 1033 1033 1033 
1033 1033 1033 1033 1033 1033 1033 1033 1033 
1033 1033 1033 1033 1033 1033 1033 1033 1033 
1033 1033 1033 1033 1033 1033 1033 1033 1033 
1033 1033 1033 1033 1033 1033 1033 1033 1033 
1033 1033 1033 1033 1033 1033 1033 1033 1033 
1033 1033 1033 1033 1033 1033 1033 1033 1033 
1033 1033 1033 1033 1033 1033 1033 1033 1033 
1033 1033 1033 1033 1033 1033 1033 1033 1033 
1033 1033 1033 1033 1033 1033 1033 1033 1033 
1033 1033 1033 1033 1033 1033 1033 1033 1033 
1033 1033 1033 1033 1033 1033 1033 1033 1033 
1033 1033 1033 1033 1033 1033 1033 1033 1033 
1033 1033 1033 1033 1033 1033 1033 1033 1033 
1033 1033 1033 1033 1033 1033 1033 1033 1033 
1033 1033 1033 1033 1033 1033 1033 1033 1033 
1033 1033 1033 1033 1033 1033 1033 1033 1033 
1033 1033 1033 1033 1033 1033 1033 1033 1033 
1033 1033 1033 1033 1033 1033 1033 1033 1033 
1033 1033 1033 1033 1033 1033 1033 1033 1033 
1033 1033 1033 1033 1033 1033 1033 1033 1033 
1033 1033 1033 1033 1033 1033 1033 1033 1033 
1033 1033 1033 1033 1033 1033 1033 1033 1033 
1033 1033 1033 1033 1033 1033 1033 1033 1033 
1033 1033 1033 1033 1033 1033 1033 1033 1033 
1033 1033 1033 1033 1033 1033 1033 1033 1033 
1033 1033 1033 1033 1033 1033 1033 1033 1033 
1033 1033 1033 1033 1033 1033 1033 1033 1033 
1033 1033 1033 1033 1033 1033 1033 1033 1033 
1033 1033 1033 1033 1033 1033 1033 1033 1033 
1033 1033 1033 1033 1033 1033 1033 1033 1033 
1033 1033 1033 1033 1033 1033 1033 1033 1033 
1033 1033 1033 1033 1033 1033 1033 1033 1033 
1033 1033 1033 1033 1033 1033 1033 1033 1033 
1033 1033 1033 1033 1033 1033 1033 1033 1033 
1033 1033 1033 1033 1033 1033 1033 1033 1033 
1033 1033 1033 1033 1033 1033 1033 1033 1033 
1033 1033 1033 1033 1033 1033 1033 1033 1033 
1033 1033 1033 1033 1033 1033 1033 1033 1033 
1033 1033 1033 1033 1033 1033 1033 1033 1033 
1033 1033 1033 1033 1033 1033 1033 1033 1033 
1033 1033 1033 1033 1033 1033 1033 1033 1033 
1033 1033 1033 1033 1033 1033 1033 1033 1033 
1033 1033 1033 1033 1033 1033 1033 1033 1033 
1033 1033 1033 1033 1033 1033 1033 1033 1033 
1033 1033 1033 1033 1033 1033 1033 1033 1033 
1033 1033 1033 1033 1033 1033 1033 1033 1033 
1033 1033 1033 1033 1033 1033 1033 1033 1033 
1033 1033 1033 1033 1033 1033 1033 1033 1033 
1033 1033 1033 1033 1033 1033 1033 1033 1033 
1033 1033 1033 1033 1033 1033 1033 1033 1033 
1033 1033 1033 1033 1033 1033 1033 1033 1033 
1033 1033 1033 1033 1033 1033 1033 1033 1033 
1033 1033 1033 1033 1033 1033 1033 1033 1033 
1033 1033 1033 1033 1033 1033 1033 1033 1033 
1033 1033 1033 1033 1033 1033 1033 1033 1033 
1033 1033 1033 1033 1033 1033 1033 1033 1033 
1033 1033 1033 1033 1033 1033 1033 1033 1033 
1033 1033 1033 1033 1033 1033 1033 1033 1033 
1033 1033 1033 1033 1033 1033 1033 1033 1033 
1033 1033 1033 1033 1033 1033 1033 1033 1033 
1033 1033 1033 1033 1033 1033 1033 1033 1033 
1033 1033 1033 1033 1033 1033 1033 1033 1033 
1033 1033 1033 1033 1033 1033 1033 1033 1033 
1033 1033 1033 1033 1033 1033 1033 1033 1033 
1033 1033 1033 1033 1033 1033 1033 1033 1033 
1033 1033 1033 1033 1033 1033 1033 1033 1033 
1033 1033 1033 1033 1033 1033 1033 1033 1033 
1033 1033 1033 1033 1033 1033 1033 1033 1033 
1033 1033 1033 1033 1033 1033 1033 1033 1033 
1033 1033 1033 1033 1033 1033 1033 1033 1033 
1033 1033 1033 1033 1033 1033 1033 1033 1033 
1033 1033 1033 1033 1033 1033 1033 1033 1033 
1033 1033 1033 1033 1033 1033 1033 1033 1033 
1033 1033 1033 1033 1033 1033 1033 1033 1033 
1033 1033 1033 1033 1033 1033 1033 1033 1033 
1033 1033 1033 1033 1033 1033 1033 1033 1033 
1033 1033 1033 1033 1033 1033 1033 1033 1033 
1033 1033 1033 1033 1033 1033 1033 1033 1033 
1033 1033 1033 1033 1033 1033 1033 1033 1033 
1033 1033 1033 1033 1033 1033 1033 1033 1033 
1033 1033 1033 1033 1033 1033 1033 1033 1033 
1033 1033 1033 1033 1033 1033 1033 1033 1033 
1033 1033 1033 1033 1033 1033 1033 1033 1033 
1033 1033 1033 1033 1033 1033 1033 1033 1033 
1033 1033 1033 1033 1033 1033 1033 1033 1033 
1033 1033 1033 1033 1033 1033 1033 1033 1033 
1033 1033 1033 1033 1033 1033 1033 1033 1033 
1033 1033 1033 1033 1033 1033 1033 1033 1033 
1033 1033 1033 1033 1033 1033 1033 1033 1033 
1033 1033 1033 1033 1033 1033 1033 1033 1033 
1033 1033 1033 1033 1033 1033 1033 1033 1033 
1033 1033 1033 1033 1033 1033 1033 1033 1033 
1033 1033 1033 1033 1033 1033 1033 1033 1033 
1033 1033 1033 1033 1033 1033 1033 1033 1033 
1033 1033 1033 1033 1033 1033 1033 1033 1033 
1033 1033 1033 1033 1033 1033 1033 1033 1033 
1033 1033 1033 1033 1033 1033 1033 1033 1033 
1033 1033 1033 1033 1033 1033 1033 1033 1033 
1033 1033 1033 1033 1033 1033 1033 1033 1033 
1033 1033 1033 1033 1033 1033 1033 1033 1033 
1033 1033 1033 1033 1033 1033 1033 1033 1033 
1033 1033 1033 1033 1033 1033 1033 1033 1033 
1033 1033 1033 1033 1033 1033 1033 1033 1033 
1033 1033 1033 1033 1033 1033 1033 1033 1033 
1033 1033 1033 1033 1033 1033 1033 1033 1033 
1033 1033 1033 1033 1033 1033 1033 1033 1033 
1033 1033 1033 1033 1033 1033 1033 1033 1033 
1033 1033 1033 1033 1033 1033 1033 1033 1033 
1033 1033 1033 1033 1033 1033 1033 1033 1033 
1033 1033 1033 1033 1033 1033 1033 1033 1033 
1033 1033 1033 1033 1033 1033 1033 1033 1033 
1033 1033 1033 1033 1033 1033 1033 1033 1033 
1033 1033 1033 1033 1033 1033 1033 1033 1033 
1033 1033 1033 1033 1033 1033 1033 1033 1033 
1033 1033 1033 1033 1033 1033 1033 1033 1033 
1033 1033 1033 1033 1033 1033 1033 1033 1033 
1033 1033 1033 1033 1033 1033 1033 1033 1033 
1033 1033 1033 1033 1033 1033 1033 1033 1033 
1033 1033 1033 1033 1033 1033 1033 1033 1033 
1033 1033 1033 1033 1033 1033 1033 1033 1033 
1033 1033 1033 1033 1033 1033 1033 1033 1033 
1033 1033 1033 1033 1033 1033 1033 1033 1033 
1033 1033 1033 1033 1033 1033 1033 1033 1033 
1033 1033 1033 1033 1033 1033 1033 1033 1033 
1033 1033 1033 1033 1033 1033 1033 1033 1033 
1033 1033 1033 1033 1033 1033 1033 1033 1033 
1033 1033 1033 1033 1033 1033 1033 1033 1033 
1033 1033 1033 1033 1033 1033 1033 1033 1033 
1033 1033 1033 1033 1033 1033 1033 1033 1033 
1033 1033 1033 1033 1033 1033 1033 1033 1033 
1033 1033 1033 1033 1033 1033 1033 1033 1033 
1033 1033 1033 1033 1033 1033 1033 1033 1033 
1033 1033 1033 1033 1033 1033 1033 1033 1033 
1033 1033 1033 1033 1033 1033 1033 1033 1033 
1033 1033 1033 1033 1033 1033 1033 1033 1033 
1033 1033 1033 1033 1033 1033 1033 1033 1033 
1033 1033 1033 1033 1033 1033 1033 1033 1033 
1033 1033 1033 1033 1033 1033 1033 1033 1033 
1033 1033 1033 1033 1033 1033 1033 1033 1033 
1033 1033 1033 1033 1033 1033 1033 1033 1033 
1033 1033 1033 1033 1033 1033 1033 1033 1033 
1033 1033 1033 1033 1033 1033 1033 1033 1033 
1033 1033 1033 1033 1033 1033 1033 1033 1033 
1033 1033 1033 1033 1033 1033 1033 1033 1033 
1033 1033 1033 1033 1033 1033 1033 1033 1033 
1033 1033 1033 1033 1033 1033 1033 1033 1033 
1033 1033 1033 1033 1033 1033 1033 1033 1033 
1033 1033 1033 1033 1033 1033 1033 1033 1033 
1033 1033 1033 1033 1033 1033 1033 1033 1033 
1033 1033 1033 1033 1033 1033 1033 1033 1033 
1033 1033 1033 1033 1033 1033 1033 1033 1033 
1033 1033 1033 1033 1033 1033 1033 1033 1033 
1033 1033 1033 1033 1033 1033 1033 1033 1033 
1033 1033 1033 1033 1033 1033 1033 1033 1033 
1033 1033 1033 1033 1033 1033 1033 1033 1033 
1033 1033 1033 1033 1033 1033 1033 1033 1033 
1033 1033 1033 1033 1033 1033 1033 1033 1033 
1033 1033 1033 1033 1033 1033 1033 1033 1033 
1033 1033 1033 1033 1033 1033 1033 1033 1033 
1033 1033 1033 1033 1033 1033 1033 1033 1033 
1033 1033 1033 1033 1033 1033 1033 1033 1033 
1033 1033 1033 1033 1033 1033 1033 1033 1033 
1033 1033 1033 1033 1033 1033 1033 1033 1033 