# vtk DataFile Version 4.0
vtk output
ASCII
DATASET POLYDATA
POINTS 7672 float
23.0501 -56.3292 10.9948 23.3035 -56.7117 11.2047 23.366 -56.4373 10.9765 
22.6881 -56.6412 11.1732 19.762 -56.2126 11.0366 20.0681 -56.4931 11.3215 
20.4117 -56.5949 10.9261 19.2053 -56.2144 10.9115 19.2703 -56.3984 11.3906 
18.7174 -56.6807 11.2116 23.1481 -56.6403 10.7257 19.7989 -56.644 10.6385 
18.9801 -56.6598 10.6902 24.1137 -56.2913 6.8735 24.1934 -56.5147 7.29592 
24.3223 -56.758 6.96349 23.8132 -56.448 7.06045 23.7997 -56.6777 6.66277 
21.7492 -57.232 12.7546 21.84 -57.7353 13.4791 22.4211 -57.5036 12.8719 
21.4226 -57.6212 13.0968 22.0711 -57.0473 11.8475 22.6349 -57.4236 12.1207 
21.1173 -57.3833 12.6775 21.0312 -57.1071 12.1391 19.8855 -56.9501 11.8753 
20.261 -57.4753 12.5124 18.9471 -56.9331 11.8185 19.2604 -57.48 12.4125 
18.5898 -57.3977 11.9083 23.8266 -56.9725 10.9907 23.8545 -57.5116 11.2057 
24.2269 -57.5099 10.9875 23.0141 -57.3503 11.5568 22.2378 -56.8196 10.7714 
21.104 -56.9644 11.0664 18.4389 -57.5773 10.9133 6.7763 -57.2456 10.9917 
6.9016 -57.7105 11.4112 7.25119 -57.7868 10.9954 6.26616 -57.2288 10.878 
6.27171 -57.4143 11.2008 5.64822 -57.6251 11.1382 23.8461 -57.3079 10.5835 
22.8742 -57.0353 9.94393 23.6059 -57.6671 10.0332 21.8935 -57.1263 9.95791 
21.3673 -57.4322 10.072 20.7017 -57.3139 10.4289 19.8944 -57.4726 10.3267 
19.1351 -57.3946 10.3888 6.7778 -57.4438 10.6991 6.0862 -57.6314 10.6352 
4.97954 -57.3928 10.3164 5.38643 -57.6419 9.80415 4.93017 -57.2476 9.82027 
4.65055 -57.4679 10.0856 23.0262 -57.0932 8.81874 23.6334 -57.6729 9.06079 
22.1462 -57.1424 8.9469 21.5163 -57.538 9.24209 5.07678 -57.2677 9.20727 
5.33856 -57.7089 8.74277 4.51757 -57.621 9.07355 23.7231 -56.9497 7.93956 
24.0664 -57.8519 8.43207 24.3878 -57.2454 7.68295 23.0004 -56.9227 7.90498 
22.3273 -57.1358 7.87191 21.5682 -57.5307 8.27837 4.97194 -57.5544 8.529 
24.3807 -57.6966 7.20997 23.1227 -56.9093 7.1445 22.3813 -57.3742 7.0555 
21.79 -57.5553 7.48245 23.9932 -57.4182 6.66913 23.1265 -57.4844 6.57193 
6.01352 -58.3394 16.0885 6.0392 -58.6489 16.2386 6.18828 -58.5121 16.0699 
5.77638 -58.7922 15.9652 6.10798 -58.695 15.5981 22.235 -58.031 13.8314 
22.0388 -58.4599 14.2257 22.395 -58.6553 13.8266 21.7871 -58.4681 13.9775 
17.828 -58.1121 13.7861 17.8335 -58.6906 14.3388 18.5809 -58.5624 14.0342 
16.8797 -58.1102 13.7675 17.1355 -58.5793 14.3322 16.4899 -58.5664 14.1239 
23.0014 -58.0925 13.1138 22.9661 -58.6671 13.328 23.4571 -58.6911 12.7324 
20.6802 -57.8955 12.9824 21.0931 -58.536 13.4526 19.7151 -58.0001 12.9577 
20.1426 -58.4886 13.2687 18.6915 -57.9719 12.9936 19.3763 -58.67 13.5093 
17.8809 -57.9522 12.8643 17.061 -57.9409 13.003 16.1984 -58.3965 13.5909 
16.0061 -58.1334 12.8977 15.5303 -58.9093 13.0678 14.0428 -58.2081 12.6728 
13.9545 -58.8172 13.4765 14.5062 -58.4832 12.816 13.4759 -58.6025 13.0164 
7.69476 -58.2879 12.9035 8.1216 -58.5514 13.3637 8.29821 -58.4994 13.0111 
7.00458 -58.2835 12.7259 7.37245 -58.4966 13.3986 6.69321 -58.5892 13.0248 
23.8132 -58.313 12.1232 24.0491 -58.6469 12.2094 24.238 -58.5462 11.9624 
23.1314 -57.8176 12.136 18.131 -57.856 11.9809 17.205 -58.0958 11.8823 
16.0644 -57.9505 12.0249 15.0984 -58.6526 12.6779 14.8782 -58.0344 12.1069 
13.8328 -58.0604 11.7924 13.418 -58.4206 12.3364 9.01214 -58.3652 11.9464 
9.11534 -58.6331 12.3355 9.26996 -58.778 12.0104 8.03185 -58.4798 12.4784 
8.72244 -58.6899 11.9216 7.62022 -58.3329 11.6071 7.12083 -58.1731 12.1144 
6.43209 -58.5001 12.3132 4.93679 -58.2194 11.6447 5.14662 -58.6622 12.2409 
5.47405 -58.526 11.9579 4.57544 -58.6157 12.1626 24.0622 -57.8014 10.8353 
23.9021 -58.7816 11.7021 23.587 -58.3834 11.0676 17.8715 -58.1137 11.2341 
17.4496 -58.4595 11.1377 16.8675 -58.4615 11.2452 16.4218 -58.5915 10.8567 
16.0637 -58.1644 11.1293 15.0399 -57.9399 11.0241 14.0426 -57.919 10.9705 
12.9575 -58.6067 11.6134 12.9872 -58.1223 10.8587 12.4442 -58.6118 11.055 
9.01096 -58.571 11.748 7.55649 -58.4018 11.0355 6.03975 -58.1304 11.6851 
5.01942 -57.7353 10.6529 4.12826 -58.454 11.6252 4.0959 -58.1962 10.9268 
3.6143 -58.5601 11.1249 23.5774 -58.3602 9.86582 21.0548 -57.7976 9.73385 
20.3128 -58.0409 9.81843 19.3653 -58.1058 9.98461 18.5123 -58.5372 9.9873 
17.9265 -58.4785 10.6083 15.8457 -58.4421 10.4631 15.5613 -58.6969 9.66478 
15.053 -58.0809 10.0511 14.0316 -57.9249 9.97269 13.0509 -57.9347 9.95882 
11.9723 -58.6564 10.5655 11.9923 -58.1222 9.87088 11.4502 -58.6318 10.0232 
7.04373 -58.4038 10.4814 5.97975 -58.0655 10.1945 6.43236 -58.6636 9.84143 
4.08989 -57.9688 9.87895 3.45528 -58.4944 10.2394 23.5053 -58.762 9.01371 
20.9389 -58.0553 8.88496 20.3577 -58.4852 9.10764 19.7284 -58.5785 9.44018 
19.0518 -58.7362 9.5179 14.8837 -58.1886 9.02914 15.325 -58.7894 8.76337 
14.0122 -57.9557 8.97288 12.9878 -57.9302 8.93291 11.9968 -57.933 8.94638 
10.9827 -58.5341 9.59605 10.8935 -58.0608 8.96326 9.72499 -58.0875 8.80713 
10.0496 -58.6176 9.34311 8.77969 -58.154 8.71217 9.0909 -58.6659 9.25054 
8.39564 -58.6829 9.07349 5.91686 -58.3839 9.60922 5.72226 -58.3492 8.90806 
3.97708 -58.1045 9.0108 3.44245 -58.6914 9.01963 23.9954 -58.6531 8.37097 
24.329 -58.2313 7.93806 21.144 -58.0263 7.6667 20.5272 -58.5538 8.26345 
14.8928 -58.3958 8.38784 14.5754 -58.459 7.96901 14.2306 -58.1592 8.22123 
13.09 -58.0735 7.92871 11.9773 -57.949 7.92842 10.9992 -57.932 7.93895 
10.0101 -57.9189 7.96343 8.99367 -57.9148 7.97959 8.03055 -58.4025 8.66959 
8.0173 -58.0649 8.09514 7.25562 -58.2659 7.68116 7.28016 -58.4973 8.40725 
6.71441 -58.5946 8.08436 5.09289 -58.0162 8.0693 5.46385 -58.5482 7.92856 
4.59714 -58.1725 8.08986 4.00585 -58.4645 8.38057 24.0867 -58.5349 7.46841 
24.0989 -58.0395 6.92584 23.7668 -58.3176 6.77617 21.9389 -57.8453 6.69747 
21.02 -58.1718 6.79117 20.5133 -58.5397 7.25002 13.9986 -58.6357 7.53883 
12.9291 -58.4078 7.24904 12.5563 -58.6416 6.85257 12.1619 -58.1793 7.18106 
11.2437 -58.1094 7.07364 10.252 -58.0773 7.05486 9.24082 -58.0455 7.0834 
8.15418 -58.1245 7.16155 7.35094 -58.646 6.86094 6.81478 -58.588 7.51613 
4.72564 -58.7507 7.6596 24.1561 -58.6278 6.54629 24.3687 -58.7805 5.849 
23.93 -58.303 6.1137 23.0888 -58.0844 6.0947 22.1559 -58.1485 5.93644 
21.3187 -58.2089 6.09567 20.5815 -58.5105 6.32132 11.8835 -58.6197 6.63297 
10.8824 -58.5762 6.42116 9.73282 -58.4318 6.40052 8.73883 -58.4422 6.40612 
8.00684 -58.6098 6.41465 23.7308 -58.4449 5.49579 22.7755 -58.4568 5.41206 
21.7423 -58.502 5.43796 20.9141 -58.567 5.64955 22.2439 -59.4483 17.2323 
22.5014 -59.5353 16.9065 22.1026 -59.2816 16.9783 21.7978 -59.4455 17.1266 
21.949 -59.726 16.6928 18.8948 -59.2244 15.9224 18.7549 -59.607 16.2714 
19.5911 -59.5516 15.7793 18.1714 -59.2763 15.7908 18.1536 -59.4368 16.2923 
17.8144 -59.5103 16.0979 5.88272 -59.2585 16.1833 6.32236 -59.25 15.896 
5.68068 -59.7108 15.7348 19.7816 -59.2317 15.1033 20.1673 -59.5344 15.2947 
20.2597 -59.5146 14.9612 18.7871 -59.0303 14.9463 18.4236 -59.5852 15.0376 
18.071 -59.6214 15.6493 8.92358 -59.1565 14.7831 9.00247 -59.4668 15.4029 
9.57922 -59.4836 15.0252 7.78052 -59.1442 14.8751 8.30853 -59.501 15.5117 
6.71454 -59.0502 14.9739 7.18362 -59.6247 15.5811 6.02075 -59.0345 14.7435 
5.66483 -59.3019 15.1754 21.9793 -58.7883 14.1189 19.9596 -59.4317 14.5517 
19.5761 -59.7109 14.1305 19.3589 -58.9897 14.2284 18.2181 -59.4274 14.5198 
17.3329 -59.522 14.6213 15.6935 -59.0016 13.9018 16.1994 -59.3971 14.5539 
14.6826 -59.1987 13.8962 15.1444 -59.4853 14.3605 14.018 -59.1137 14.0615 
14.2925 -59.5447 14.2856 13.7182 -59.3004 13.9783 9.75241 -59.2296 14.1234 
10.173 -59.662 14.579 10.3806 -59.849 13.8525 9.06899 -58.9804 14.0347 
8.18732 -58.8564 14.0056 6.97855 -58.878 13.9232 5.96518 -59.123 13.8896 
5.46557 -59.698 14.2548 23.0461 -59.0362 13.0361 22.6258 -59.4688 13.1282 
21.8146 -59.4904 13.6112 20.9775 -59.5027 13.501 20.213 -59.4701 13.5746 
15.1673 -59.3892 13.2915 15.2171 -59.5406 12.9004 14.7267 -59.193 13.0787 
12.9851 -59.0024 12.6583 13.3176 -59.4149 13.3994 12.7769 -59.7649 12.6819 
9.91951 -59.4127 13.4137 9.62793 -59.3019 12.6419 8.8978 -58.8531 13.0678 
6.13538 -58.8836 12.9705 4.98818 -59.5802 13.5933 4.97994 -59.0332 12.8341 
3.8183 -59.2277 12.7257 4.29029 -59.5216 13.2648 3.52126 -59.697 13.193 
24.1401 -58.7981 11.9602 23.5835 -59.1903 12.0813 23.0421 -59.5119 12.5319 
15.0856 -59.3675 12.7613 12.9706 -58.8372 12.1251 12.5573 -59.4967 11.9786 
9.54357 -59.4033 12.0689 8.22589 -58.7411 12.039 5.73683 -58.7462 12.2477 
3.84558 -58.8293 11.9559 3.13767 -59.4448 12.5966 2.90046 -59.1551 11.8508 
2.55224 -59.5336 12.1386 23.1864 -59.4531 11.4687 23.145 -59.3054 10.8032 
22.7383 -59.8735 10.7734 17.149 -58.8324 10.6584 12.0218 -58.9824 10.9502 
12.212 -59.2824 11.2996 11.6246 -59.6994 10.8547 9.08947 -59.4229 11.5118 
8.03174 -58.9771 11.1906 8.40186 -59.7051 10.8066 2.9478 -58.8454 10.8316 
2.1152 -59.4286 11.5337 2.09218 -59.1827 10.8674 1.62748 -59.7389 11.144 
23.0144 -59.5346 10.4309 23.3022 -59.1515 10.0922 17.7845 -59.0071 10.1263 
17.1772 -59.2693 10.013 16.3438 -59.0083 10.1792 10.8678 -59.0807 9.8547 
11.0754 -59.4934 10.3026 10.4061 -59.7267 9.99438 7.7251 -59.4299 10.3916 
7.05369 -59.1182 9.70821 7.71203 -59.5448 9.82363 2.94409 -58.8085 9.78322 
2.28881 -59.1376 9.85024 1.65827 -59.6141 10.2444 23.0858 -59.3537 9.39327 
23.0298 -59.283 8.97899 22.621 -59.8031 8.90523 20.0296 -58.8282 8.76686 
19.3861 -59.1514 8.82441 18.6405 -59.3432 9.18625 17.783 -59.505 9.48945 
16.7406 -59.6257 9.53406 16.0169 -59.4119 9.52612 15.7152 -59.4517 8.93156 
11.8404 -59.2148 8.81678 12.3545 -59.614 9.02275 11.856 -59.6508 9.25538 
11.3903 -59.4719 8.93527 10.1968 -59.2752 9.66213 9.26487 -59.4231 9.59702 
7.61857 -59.0122 9.1422 8.33902 -59.4215 9.55486 6.76244 -58.9239 8.77886 
6.26301 -58.8621 9.16447 2.78712 -59.0778 9.11569 2.43641 -59.6198 8.89649 
1.96101 -59.8124 9.46036 24.0649 -58.8495 8.01245 23.6569 -59.1574 7.91698 
23.0007 -59.5475 8.48196 19.8176 -59.059 7.84539 19.3369 -59.5321 8.16969 
18.9336 -59.6826 8.5864 14.9538 -58.8604 8.01452 15.389 -59.4803 8.0606 
[...]
CELL_DATA 15380
SCALARS scalars float
LOOKUP_TABLE default
2005 2005 2005 2005 2005 2005 2005 2005 2005 
2005 2005 2005 2005 2005 2005 2005 2005 2005 
2005 2005 2005 2005 2005 2005 2005 2005 2005 
2005 2005 2005 2005 2005 2005 2005 2005 2005 
2005 2005 2005 2005 2005 2005 2005 2005 2005 
2005 2005 2005 2005 2005 2005 2005 2005 2005 
2005 2005 2005 2005 2005 2005 2005 2005 2005 
2005 2005 2005 2005 2005 2005 2005 2005 2005 
2005 2005 2005 2005 2005 2005 2005 2005 2005 
2005 2005 2005 2005 2005 2005 2005 2005 2005 
2005 2005 2005 2005 2005 2005 2005 2005 2005 
2005 2005 2005 2005 2005 2005 2005 2005 2005 
2005 2005 2005 2005 2005 2005 2005 2005 2005 
2005 2005 2005 2005 2005 2005 2005 2005 2005 
2005 2005 2005 2005 2005 2005 2005 2005 2005 
2005 2005 2005 2005 2005 2005 2005 2005 2005 
2005 2005 2005 2005 2005 2005 2005 2005 2005 
2005 2005 2005 2005 2005 2005 2005 2005 2005 
2005 2005 2005 2005 2005 2005 2005 2005 2005 
2005 2005 2005 2005 2005 2005 2005 2005 2005 
2005 2005 2005 2005 2005 2005 2005 2005 2005 
2005 2005 2005 2005 2005 2005 2005 2005 2005 
2005 2005 2005 2005 2005 2005 2005 2005 2005 
2005 2005 2005 2005 2005 2005 2005 2005 2005 
2005 2005 2005 2005 2005 2005 2005 2005 2005 
2005 2005 2005 2005 2005 2005 2005 2005 2005 
2005 2005 2005 2005 2005 2005 2005 2005 2005 
2005 2005 2005 2005 2005 2005 2005 2005 2005 
2005 2005 2005 2005 2005 2005 2005 2005 2005 
2005 2005 2005 2005 2005 2005 2005 2005 2005 
2005 2005 2005 2005 2005 2005 2005 2005 2005 
2005 2005 2005 2005 2005 2005 2005 2005 2005 
2005 2005 2005 2005 2005 2005 2005 2005 2005 
2005 2005 2005 2005 2005 2005 2005 2005 2005 
2005 2005 2005 2005 2005 2005 2005 2005 2005 
2005 2005 2005 2005 2005 2005 2005 2005 2005 
2005 2005 2005 2005 2005 2005 2005 2005 2005 
2005 2005 2005 2005 2005 2005 2005 2005 2005 
2005 2005 2005 2005 2005 2005 2005 2005 2005 
2005 2005 2005 2005 2005 2005 2005 2005 2005 
2005 2005 2005 2005 2005 2005 2005 2005 2005 
2005 2005 2005 2005 2005 2005 2005 2005 2005 
2005 2005 2005 2005 2005 2005 2005 2005 2005 
2005 2005 2005 2005 2005 2005 2005 2005 2005 
2005 2005 2005 2005 2005 2005 2005 2005 2005 
2005 2005 2005 2005 2005 2005 2005 2005 2005 
2005 2005 2005 2005 2005 2005 2005 2005 2005 
2005 2005 2005 2005 2005 2005 2005 2005 2005 
2005 2005 2005 2005 2005 2005 2005 2005 2005 
2005 2005 2005 2005 2005 2005 2005 2005 2005 
2005 2005 2005 2005 2005 2005 2005 2005 2005 
2005 2005 2005 2005 2005 2005 2005 2005 2005 
2005 2005 2005 2005 2005 2005 2005 2005 2005 
2005 2005 2005 2005 2005 2005 2005 2005 2005 
2005 2005 2005 2005 2005 2005 2005 2005 2005 
2005 2005 2005 2005 2005 2005 2005 2005 2005 
2005 2005 2005 2005 2005 2005 2005 2005 2005 
2005 2005 2005 2005 2005 2005 2005 2005 2005 
2005 2005 2005 2005 2005 2005 2005 2005 2005 
2005 2005 2005 2005 2005 2005 2005 2005 2005 
2005 2005 2005 2005 2005 2005 2005 2005 2005 
2005 2005 2005 2005 2005 2005 2005 2005 2005 
2005 2005 2005 2005 2005 2005 2005 2005 2005 
2005 2005 2005 2005 2005 2005 2005 2005 2005 
2005 2005 2005 2005 2005 2005 2005 2005 2005 
2005 2005 2005 2005 2005 2005 2005 2005 2005 
2005 2005 2005 2005 2005 2005 2005 2005 2005 
2005 2005 2005 2005 2005 2005 2005 2005 2005 
2005 2005 2005 2005 2005 2005 2005 2005 2005 
2005 2005 2005 2005 2005 2005 2005 2005 2005 
2005 2005 2005 2005 2005 2005 2005 2005 2005 
2005 2005 2005 2005 2005 2005 2005 2005 2005 
2005 2005 2005 2005 2005 2005 2005 2005 2005 
2005 2005 2005 2005 2005 2005 2005 2005 2005 
2005 2005 2005 2005 2005 2005 2005 2005 2005 
2005 2005 2005 2005 2005 2005 2005 2005 2005 
2005 2005 2005 2005 2005 2005 2005 2005 2005 
2005 2005 2005 2005 2005 2005 2005 2005 2005 
2005 2005 2005 2005 2005 2005 2005 2005 2005 
2005 2005 2005 2005 2005 2005 2005 2005 2005 
2005 2005 2005 2005 2005 2005 2005 2005 2005 
2005 2005 2005 2005 2005 2005 2005 2005 2005 
2005 2005 2005 2005 2005 2005 2005 2005 2005 
2005 2005 2005 2005 2005 2005 2005 2005 2005 
2005 2005 2005 2005 2005 2005 2005 2005 2005 
2005 2005 2005 2005 2005 2005 2005 2005 2005 
2005 2005 2005 2005 2005 2005 2005 2005 2005 
2005 2005 2005 2005 2005 2005 2005 2005 2005 
2005 2005 2005 2005 2005 2005 2005 2005 2005 
2005 2005 2005 2005 2005 2005 2005 2005 2005 
2005 2005 2005 2005 2005 2005 2005 2005 2005 
2005 2005 2005 2005 2005 2005 2005 2005 2005 
2005 2005 2005 2005 2005 2005 2005 2005 2005 
2005 2005 2005 2005 2005 2005 2005 2005 2005 
2005 2005 2005 2005 2005 2005 2005 2005 2005 
2005 2005 2005 2005 2005 2005 2005 2005 2005 
2005 2005 2005 2005 2005 2005 2005 2005 2005 
2005 2005 2005 2005 2005 2005 2005 2005 2005 
2005 2005 2005 2005 2005 2005 2005 2005 2005 
2005 2005 2005 2005 2005 2005 2005 2005 2005 
2005 2005 2005 2005 2005 2005 2005 2005 2005 
2005 2005 2005 2005 2005 2005 2005 2005 2005 
2005 2005 2005 2005 2005 2005 2005 2005 2005 
2005 2005 2005 2005 2005 2005 2005 2005 2005 
2005 2005 2005 2005 2005 2005 2005 2005 2005 
2005 2005 2005 2005 2005 2005 2005 2005 2005 
2005 2005 2005 2005 2005 2005 2005 2005 2005 
2005 2005 2005 2005 2005 2005 2005 2005 2005 
2005 2005 2005 2005 2005 2005 2005 2005 2005 
2005 2005 2005 2005 2005 2005 2005 2005 2005 
2005 2005 2005 2005 2005 2005 2005 2005 2005 
2005 2005 2005 2005 2005 2005 2005 2005 2005 
2005 2005 2005 2005 2005 2005 2005 2005 2005 
2005 2005 2005 2005 2005 2005 2005 2005 2005 
2005 2005 2005 2005 2005 2005 2005 2005 2005 
2005 2005 2005 2005 2005 2005 2005 2005 2005 
2005 2005 2005 2005 2005 2005 2005 2005 2005 
2005 2005 2005 2005 2005 2005 2005 2005 2005 
2005 2005 2005 2005 2005 2005 2005 2005 2005 
2005 2005 2005 2005 2005 2005 2005 2005 2005 
2005 2005 2005 2005 2005 2005 2005 2005 2005 
2005 2005 2005 2005 2005 2005 2005 2005 2005 
2005 2005 2005 2005 2005 2005 2005 2005 2005 
2005 2005 2005 2005 2005 2005 2005 2005 2005 
2005 2005 2005 2005 2005 2005 2005 2005 2005 
2005 2005 2005 2005 2005 2005 2005 2005 2005 
2005 2005 2005 2005 2005 2005 2005 2005 2005 
2005 2005 2005 2005 2005 2005 2005 2005 2005 
2005 2005 2005 2005 2005 2005 2005 2005 2005 
2005 2005 2005 2005 2005 2005 2005 2005 2005 
2005 2005 2005 2005 2005 2005 2005 2005 2005 
2005 2005 2005 2005 2005 2005 2005 2005 2005 
2005 2005 2005 2005 2005 2005 2005 2005 2005 
2005 2005 2005 2005 2005 2005 2005 2005 2005 
2005 2005 2005 2005 2005 2005 2005 2005 2005 
2005 2005 2005 2005 2005 2005 2005 2005 2005 
2005 2005 2005 2005 2005 2005 2005 2005 2005 
2005 2005 2005 2005 2005 2005 2005 2005 2005 
2005 2005 2005 2005 2005 2005 2005 2005 2005 
2005 2005 2005 2005 2005 2005 2005 2005 2005 
2005 2005 2005 2005 2005 2005 2005 2005 2005 
2005 2005 2005 2005 2005 2005 2005 2005 2005 
2005 2005 2005 2005 2005 2005 2005 2005 2005 
2005 2005 2005 2005 2005 2005 2005 2005 2005 
2005 2005 2005 2005 2005 2005 2005 2005 2005 
2005 2005 2005 2005 2005 2005 2005 2005 2005 
2005 2005 2005 2005 2005 2005 2005 2005 2005 
2005 2005 2005 2005 2005 2005 2005 2005 2005 
2005 2005 2005 2005 2005 2005 2005 2005 2005 
2005 2005 2005 2005 2005 2005 2005 2005 2005 
2005 2005 2005 2005 2005 2005 2005 2005 2005 
2005 2005 2005 2005 2005 2005 2005 2005 2005 
2005 2005 2005 2005 2005 2005 2005 2005 2005 
2005 2005 2005 2005 2005 2005 2005 2005 2005 
2005 2005 2005 2005 2005 2005 2005 2005 2005 
2005 2005 2005 2005 2005 2005 2005 2005 2005 
2005 2005 2005 2005 2005 2005 2005 2005 2005 
2005 2005 2005 2005 2005 2005 2005 2005 2005 
2005 2005 2005 2005 2005 2005 2005 2005 2005 
2005 2005 2005 2005 2005 2005 2005 2005 2005 
2005 2005 2005 2005 2005 2005 2005 2005 2005 
2005 2005 2005 2005 2005 2005 2005 2005 2005 
2005 2005 2005 2005 2005 2005 2005 2005 2005 
2005 2005 2005 2005 2005 2005 2005 2005 2005 
2005 2005 2005 2005 2005 2005 2005 2005 2005 
2005 2005 2005 2005 2005 2005 2005 2005 2005 
2005 2005 2005 2005 2005 2005 2005 2005 2005 
2005 2005 2005 2005 2005 2005 2005 2005 2005 
2005 2005 2005 2005 2005 2005 2005 2005 2005 
2005 2005 2005 2005 2005 2005 2005 2005 2005 
2005 2005 2005 2005 2005 2005 2005 2005 2005 
2005 2005 2005 2005 2005 2005 2005 2005 2005 
2005 2005 2005 2005 2005 2005 2005 2005 2005 
2005 2005 2005 2005 2005 2005 2005 2005 2005 
2005 2005 2005 2005 2005 2005 2005 2005 2005 
2005 2005 2005 2005 2005 2005 2005 2005 2005 
2005 2005 2005 2005 2005 2005 2005 2005 2005 
2005 2005 2005 2005 2005 2005 2005 2005 2005 
2005 2005 2005 2005 2005 2005 2005 2005 2005 
2005 2005 2005 2005 2005 2005 2005 2005 2005 
2005 2005 2005 2005 2005 2005 2005 2005 2005 
2005 2005 2005 2005 2005 2005 2005 2005 2005 
2005 2005 2005 2005 2005 2005 2005 2005 2005 
2005 2005 2005 2005 2005 2005 2005 2005 2005 
2005 2005 2005 2005 2005 2005 2005 2005 2005 
2005 2005 2005 2005 2005 2005 2005 2005 2005 
2005 2005 2005 2005 2005 2005 2005 2005 2005 
2005 2005 2005 2005 2005 2005 2005 2005 2005 
2005 2005 2005 2005 2005 2005 2005 2005 2005 
2005 2005 2005 2005 2005 2005 2005 2005 2005 
2005 2005 2005 2005 2005 2005 2005 2005 2005 
2005 2005 2005 2005 2005 2005 2005 2005 2005 
2005 2005 2005 2005 2005 2005 2005 2005 2005 
2005 2005 2005 2005 2005 2005 2005 2005 2005 
2005 2005 2005 2005 2005 2005 2005 2005 2005 
2005 2005 2005 2005 2005 2005 2005 2005 2005 
2005 2005 2005 2005 2005 2005 2005 2005 2005 
2005 2005 2005 2005 2005 2005 2005 2005 2005 
2005 2005 2005 2005 2005 2005 2005 2005 2005 
2005 2005 2005 2005 2005 2005 2005 2005 2005 
2005 2005 2005 2005 2005 2005 2005 2005 2005 
2005 2005 2005 2005 2005 2005 2005 2005 2005 
2005 2005 2005 2005 2005 2005 2005 2005 2005 
2005 2005 2005 2005 2005 2005 2005 2005 2005 
2005 2005 2005 2005 2005 2005 2005 2005 2005 
2005 2005 2005 2005 2005 2005 2005 2005 2005 
2005 2005 2005 2005 2005 2005 2005 2005 2005 
2005 2005 2005 2005 2005 2005 2005 2005 2005 
2005 2005 2005 2005 2005 2005 2005 2005 2005 
2005 2005 2005 2005 2005 2005 2005 2005 2005 
2005 2005 2005 2005 2005 2005 2005 2005 2005 
2005 2005 2005 2005 2005 2005 2005 2005 2005 
2005 2005 2005 2005 2005 2005 2005 2005 2005 
2005 2005 2005 2005 2005 2005 2005 2005 2005 
2005 2005 2005 2005 2005 2005 2005 2005 2005 
2005 2005 2005 2005 2005 2005 2005 2005 2005 
2005 2005 2005 2005 2005 2005 2005 2005 2005 
2005 2005 2005 2005 2005 2005 2005 2005 2005 
2005 2005 2005 2005 2005 2005 2005 2005 2005 
2005 2005 2005 2005 2005 2005 2005 2005 2005 
2005 2005 2005 2005 2005 2005 2005 2005 2005 
2005 2005 2005 2005 2005 2005 2005 2005 2005 
2005 2005 2005 2005 2005 2005 2005 2005 2005 
2005 2005 2005 2005 2005 2005 2005 2005 2005 
2005 2005 2005 2005 2005 2005 2005 2005 2005 
2005 2005 2005 2005 2005 2005 2005 2005 2005 
2005 2005 2005 2005 2005 2005 2005 2005 2005 
2005 2005 2005 2005 2005 2005 2005 2005 2005 
2005 2005 2005 2005 2005 2005 2005 2005 2005 
2005 2005 2005 2005 2005 2005 2005 2005 2005 
2005 2005 2005 2005 2005 2005 2005 2005 2005 
2005 2005 2005 2005 2005 2005 2005 2005 2005 
2005 2005 2005 2005 2005 2005 2005 2005 2005 
2005 2005 2005 2005 2005 2005 2005 2005 2005 
2005 2005 2005 2005 2005 2005 2005 2005 2005 
2005 2005 2005 2005 2005 2005 2005 2005 2005 
2005 2005 2005 2005 2005 2005 2005 2005 2005 
2005 2005 2005 2005 2005 2005 2005 2005 2005 
2005 2005 2005 2005 2005 2005 2005 2005 2005 
2005 2005 2005 2005 2005 2005 2005 2005 2005 
2005 2005 2005 2005 2005 2005 2005 2005 2005 
2005 2005 2005 2005 2005 2005 2005 2005 2005 
2005 2005 2005 2005 2005 2005 2005 2005 2005 
2005 2005 2005 2005 2005 2005 2005 2005 2005 
2005 2005 2005 2005 2005 2005 2005 2005 2005 
2005 2005 2005 2005 2005 2005 2005 2005 2005 
2005 2005 2005 2005 2005 2005 2005 2005 2005 
2005 2005 2005 2005 2005 2005 2005 2005 2005 
2005 2005 2005 2005 2005 2005 2005 2005 2005 
2005 2005 2005 2005 2005 2005 2005 2005 2005 
2005 2005 2005 2005 2005 2005 2005 2005 2005 
2005 2005 2005 2005 2005 2005 2005 2005 2005 
2005 2005 2005 2005 2005 2005 2005 2005 2005 
2005 2005 2005 2005 2005 2005 2005 2005 2005 
2005 2005 2005 2005 2005 2005 2005 2005 2005 
2005 2005 2005 2005 2005 2005 2005 2005 2005 
2005 2005 2005 2005 2005 2005 2005 2005 2005 
2005 2005 2005 2005 2005 2005 2005 2005 2005 
2005 2005 2005 2005 2005 2005 2005 2005 2005 
2005 2005 2005 2005 2005 2005 2005 2005 2005 
2005 2005 2005 2005 2005 2005 2005 2005 2005 
2005 2005 2005 2005 2005 2005 2005 2005 2005 
2005 2005 2005 2005 2005 2005 2005 2005 2005 
2005 2005 2005 2005 2005 2005 2005 2005 2005 
2005 2005 2005 2005 2005 2005 2005 2005 2005 
2005 2005 2005 2005 2005 2005 2005 2005 2005 
2005 2005 2005 2005 2005 2005 2005 2005 2005 
2005 2005 2005 2005 2005 2005 2005 2005 2005 
2005 2005 2005 2005 2005 2005 2005 2005 2005 
2005 2005 2005 2005 2005 2005 2005 2005 2005 
2005 2005 2005 2005 2005 2005 2005 2005 2005 
2005 2005 2005 2005 2005 2005 2005 2005 2005 
2005 2005 2005 2005 2005 2005 2005 2005 2005 
2005 2005 2005 2005 2005 2005 2005 2005 2005 
2005 2005 2005 2005 2005 2005 2005 2005 2005 
2005 2005 2005 2005 2005 2005 2005 2005 2005 
2005 2005 2005 2005 2005 2005 2005 2005 2005 
2005 2005 2005 2005 2005 2005 2005 2005 2005 
2005 2005 2005 2005 2005 2005 2005 2005 2005 
2005 2005 2005 2005 2005 2005 2005 2005 2005 
2005 2005 2005 2005 2005 2005 2005 2005 2005 
2005 2005 2005 2005 2005 2005 2005 2005 2005 
2005 2005 2005 2005 2005 2005 2005 2005 2005 
2005 2005 2005 2005 2005 2005 2005 2005 2005 
2005 2005 2005 2005 2005 2005 2005 2005 2005 
2005 2005 2005 2005 2005 2005 2005 2005 2005 
2005 2005 2005 2005 2005 2005 2005 2005 2005 
2005 2005 2005 2005 2005 2005 2005 2005 2005 
2005 2005 2005 2005 2005 2005 2005 2005 2005 
2005 2005 2005 2005 2005 2005 2005 2005 2005 
2005 2005 2005 2005 2005 2005 2005 2005 2005 
2005 2005 2005 2005 2005 2005 2005 2005 2005 
2005 2005 2005 2005 2005 2005 2005 2005 2005 
2005 2005 2005 2005 2005 2005 2005 2005 2005 
2005 2005 2005 2005 2005 2005 2005 2005 2005 
2005 2005 2005 2005 2005 2005 2005 2005 2005 
2005 2005 2005 2005 2005 2005 2005 2005 2005 
2005 2005 2005 2005 2005 2005 2005 2005 2005 
2005 2005 2005 2005 2005 2005 2005 2005 2005 
2005 2005 2005 2005 2005 2005 2005 2005 2005 
2005 2005 2005 2005 2005 2005 2005 2005 2005 
2005 2005 2005 2005 2005 2005 2005 2005 2005 
2005 2005 2005 2005 2005 2005 2005 2005 2005 
2005 2005 2005 2005 2005 2005 2005 2005 2005 
2005 2005 2005 2005 2005 2005 2005 2005 2005 
2005 2005 2005 2005 2005 2005 2005 2005 2005 
2005 2005 2005 2005 2005 2005 2005 2005 2005 
2005 2005 2005 2005 2005 2005 2005 2005 2005 
2005 2005 2005 2005 2005 2005 2005 2005 2005 
2005 2005 2005 2005 2005 2005 2005 2005 2005 
2005 2005 2005 2005 2005 2005 2005 2005 2005 
2005 2005 2005 2005 2005 2005 2005 2005 2005 
2005 2005 2005 2005 2005 2005 2005 2005 2005 
2005 2005 2005 2005 2005 2005 2005 2005 2005 
2005 2005 2005 2005 2005 2005 2005 2005 2005 
2005 2005 2005 2005 2005 2005 2005 2005 2005 
2005 2005 2005 2005 2005 2005 2005 2005 2005 
2005 2005 2005 2005 2005 2005 2005 2005 2005 
2005 2005 2005 2005 2005 2005 2005 2005 2005 
2005 2005 2005 2005 2005 2005 2005 2005 2005 
2005 2005 2005 2005 2005 2005 2005 2005 2005 
2005 2005 2005 2005 2005 2005 2005 2005 2005 
2005 2005 2005 2005 2005 2005 2005 2005 2005 
2005 2005 2005 2005 2005 2005 2005 2005 2005 
2005 2005 2005 2005 2005 2005 2005 2005 2005 
2005 2005 2005 2005 2005 2005 2005 2005 2005 
2005 2005 2005 2005 2005 2005 2005 2005 2005 
2005 2005 2005 2005 2005 2005 2005 2005 2005 
2005 2005 2005 2005 2005 2005 2005 2005 2005 
2005 2005 2005 2005 2005 2005 2005 2005 2005 
2005 2005 2005 2005 2005 2005 2005 2005 2005 
2005 2005 2005 2005 2005 2005 2005 2005 2005 
2005 2005 2005 2005 2005 2005 2005 2005 2005 
2005 2005 2005 2005 2005 2005 2005 2005 2005 
2005 2005 2005 2005 2005 2005 2005 2005 2005 
2005 2005 2005 2005 2005 2005 2005 2005 2005 
2005 2005 2005 2005 2005 2005 2005 2005 2005 
2005 2005 2005 2005 2005 2005 2005 2005 2005 
2005 2005 2005 2005 2005 2005 2005 2005 2005 
2005 2005 2005 2005 2005 2005 2005 2005 2005 
2005 2005 2005 2005 2005 2005 2005 2005 2005 
2005 2005 2005 2005 2005 2005 2005 2005 2005 
2005 2005 2005 2005 2005 2005 2005 2005 2005 
2005 2005 2005 2005 2005 2005 2005 2005 2005 
2005 2005 2005 2005 2005 2005 2005 2005 2005 
2005 2005 2005 2005 2005 2005 2005 2005 2005 
2005 2005 2005 2005 2005 2005 2005 2005 2005 
2005 2005 2005 2005 2005 2005 2005 2005 2005 
2005 2005 2005 2005 2005 2005 2005 2005 2005 
2005 2005 2005 2005 2005 2005 2005 2005 2005 
2005 2005 2005 2005 2005 2005 2005 2005 2005 
2005 2005 2005 2005 2005 2005 2005 2005 2005 
2005 2005 2005 2005 2005 2005 2005 2005 2005 
2005 2005 2005 2005 2005 2005 2005 2005 2005 
2005 2005 2005 2005 2005 2005 2005 2005 2005 
2005 2005 2005 2005 2005 2005 2005 2005 2005 
2005 2005 2005 2005 2005 2005 2005 2005 2005 
2005 2005 2005 2005 2005 2005 2005 2005 2005 
2005 2005 2005 2005 2005 2005 2005 2005 2005 
2005 2005 2005 2005 2005 2005 2005 2005 2005 
2005 2005 2005 2005 2005 2005 2005 2005 2005 
2005 2005 2005 2005 2005 2005 2005 2005 2005 
2005 2005 2005 2005 2005 2005 2005 2005 2005 
2005 2005 2005 2005 2005 2005 2005 2005 2005 
2005 2005 2005 2005 2005 2005 2005 2005 2005 
2005 2005 2005 2005 2005 2005 2005 2005 2005 
2005 2005 2005 2005 2005 2005 2005 2005 2005 
2005 2005 2005 2005 2005 2005 2005 2005 2005 
2005 2005 2005 2005 2005 2005 2005 2005 2005 
2005 2005 2005 2005 2005 2005 2005 2005 2005 
2005 2005 2005 2005 2005 2005 2005 2005 2005 
2005 2005 2005 2005 2005 2005 2005 2005 2005 
2005 2005 2005 2005 2005 2005 2005 2005 2005 
2005 2005 2005 2005 2005 2005 2005 2005 2005 
2005 2005 2005 2005 2005 2005 2005 2005 2005 
2005 2005 2005 2005 2005 2005 2005 2005 2005 
2005 2005 2005 2005 2005 2005 2005 2005 2005 
2005 2005 2005 2005 2005 2005 2005 2005 2005 
2005 2005 2005 2005 2005 2005 2005 2005 2005 
2005 2005 2005 2005 2005 2005 2005 2005 2005 
2005 2005 2005 2005 2005 2005 2005 2005 2005 
2005 2005 2005 2005 2005 2005 2005 2005 2005 
2005 2005 2005 2005 2005 2005 2005 2005 2005 
2005 2005 2005 2005 2005 2005 2005 2005 2005 
2005 2005 2005 2005 2005 2005 2005 2005 2005 
2005 2005 2005 2005 2005 2005 2005 2005 2005 
2005 2005 2005 2005 2005 2005 2005 2005 2005 
2005 2005 2005 2005 2005 2005 2005 2005 2005 
2005 2005 2005 2005 2005 2005 2005 2005 2005 
2005 2005 2005 2005 2005 2005 2005 2005 2005 
2005 2005 2005 2005 2005 2005 2005 2005 2005 
2005 2005 2005 2005 2005 2005 2005 2005 2005 
2005 2005 2005 2005 2005 2005 2005 2005 2005 
2005 2005 2005 2005 2005 2005 2005 2005 2005 
2005 2005 2005 2005 2005 2005 2005 2005 2005 
2005 2005 2005 2005 2005 2005 2005 2005 2005 
2005 2005 2005 2005 2005 2005 2005 2005 2005 
2005 2005 2005 2005 2005 2005 2005 2005 2005 
2005 2005 2005 2005 2005 2005 2005 2005 2005 
2005 2005 2005 2005 2005 2005 2005 2005 2005 
2005 2005 2005 2005 2005 2005 2005 2005 2005 
2005 2005 2005 2005 2005 2005 2005 2005 2005 
2005 2005 2005 2005 2005 2005 2005 2005 2005 
2005 2005 2005 2005 2005 2005 2005 2005 2005 
2005 2005 2005 2005 2005 2005 2005 2005 2005 
2005 2005 2005 2005 2005 2005 2005 2005 2005 
2005 2005 2005 2005 2005 2005 2005 2005 2005 
2005 2005 2005 2005 2005 2005 2005 2005 2005 
2005 2005 2005 2005 2005 2005 2005 2005 2005 
2005 2005 2005 2005 2005 2005 2005 2005 2005 
2005 2005 2005 2005 2005 2005 2005 2005 2005 
2005 2005 2005 2005 2005 2005 2005 2005 2005 
2005 2005 2005 2005 2005 2005 2005 2005 2005 
2005 2005 2005 2005 2005 2005 2005 2005 2005 
2005 2005 2005 2005 2005 2005 2005 2005 2005 
2005 2005 2005 2005 2005 2005 2005 2005 2005 
2005 2005 2005 2005 2005 2005 2005 2005 2005 
2005 2005 2005 2005 2005 2005 2005 2005 2005 
2005 2005 2005 2005 2005 2005 2005 2005 2005 
2005 2005 2005 2005 2005 2005 2005 2005 2005 
2005 2005 2005 2005 2005 2005 2005 2005 2005 
2005 2005 2005 2005 2005 2005 2005 2005 2005 
2005 2005 2005 2005 2005 2005 2005 2005 2005 
2005 2005 2005 2005 2005 2005 2005 2005 2005 
2005 2005 2005 2005 2005 2005 2005 2005 2005 
2005 2005 2005 2005 2005 2005 2005 2005 2005 
2005 2005 2005 2005 2005 2005 2005 2005 2005 
2005 2005 2005 2005 2005 2005 2005 2005 2005 
2005 2005 2005 2005 2005 2005 2005 2005 2005 
2005 2005 2005 2005 2005 2005 2005 2005 2005 
2005 2005 2005 2005 2005 2005 2005 2005 2005 
2005 2005 2005 2005 2005 2005 2005 2005 2005 
2005 2005 2005 2005 2005 2005 2005 2005 2005 