# vtk DataFile Version 4.0
vtk output
ASCII
DATASET POLYDATA
POINTS 18934 float
-38.9248 -68.2889 -0.0182053 -38.8858 -68.5473 0.390634 -38.7117 -68.612 0.117059 
-39.2713 -68.7484 0.0169213 -38.8707 -68.697 -0.488055 -39.9002 -68.3098 -5.04129 
-39.9578 -68.7295 -4.79654 -39.7042 -68.6378 -5.12748 -40.3519 -68.5385 -4.95602 
-40.2227 -68.6779 -5.28916 -39.3315 -69.0453 0.87271 -39.2032 -69.6753 1.35546 
-38.5145 -69.5469 0.83702 -40.213 -69.1873 1.05552 -39.8685 -69.4697 1.34442 
-40.8596 -69.2944 0.909618 -40.724 -69.5311 1.21758 -41.2165 -69.4837 0.974802 
-38.4638 -69.3683 -0.24538 -40.0943 -69.3832 0.525999 -39.6475 -69.3514 -0.137901 
-40.9474 -69.6383 0.812229 -36.1123 -69.2794 -0.907225 -35.8434 -69.8398 -0.635548 
-35.5391 -69.4915 -0.980851 -36.966 -69.2339 -0.995705 -36.7738 -69.4829 -0.636737 
-38.1746 -69.1196 -1.0644 -37.7822 -69.6356 -0.664849 -39.0012 -69.0444 -1.31748 
-39.4663 -69.3063 -0.765417 -41.2463 -69.2051 -1.00429 -40.9276 -69.5814 -0.629356 
-40.5664 -69.4771 -1.32552 -41.7937 -69.2369 -1.25594 -41.6872 -69.5946 -0.715034 
-42.1407 -69.4338 -1.03543 -35.9366 -69.6134 -1.41415 -37.2136 -69.5409 -1.40973 
-38.127 -69.6761 -1.42164 -38.3564 -69.5532 -2.03812 -38.7974 -69.1745 -2.16684 
-39.4968 -69.6092 -1.91255 -41.0947 -69.176 -1.95339 -40.4511 -69.6905 -2.35244 
-41.7192 -69.709 -1.88005 -42.0788 -69.448 -1.33634 -37.3498 -69.1992 -3.16959 
-36.9018 -69.5499 -2.76247 -36.7231 -69.5164 -3.27752 -38.2247 -69.0747 -2.91898 
-37.6781 -69.4789 -2.50976 -38.7619 -69.1566 -3.31925 -39.2674 -69.5324 -2.86171 
-40.8516 -69.2741 -2.88884 -40.6767 -69.7747 -3.0954 -41.2094 -69.4107 -2.85251 
-37.1328 -69.3383 -3.72231 -37.3446 -69.5952 -4.19154 -37.9218 -69.1536 -3.7955 
-38.51 -69.4703 -3.96867 -39.0396 -69.8383 -3.52892 -41.0048 -69.6675 -3.29373 
-37.8925 -69.8026 -4.33599 -40.2374 -69.6952 -4.74204 -39.724 -69.205 -4.9846 
-40.8635 -69.0121 -5.10508 -40.7403 -69.2677 -4.73746 -41.2552 -69.7416 -4.99622 
-40.0786 -69.3786 -5.3558 -40.9052 -69.5841 -5.3636 -38.134 -70.156 1.74645 
-37.7159 -70.727 2.26467 -37.52 -70.4675 1.70843 -38.4211 -70.7955 2.04635 
-37.8722 -70.139 1.22349 -37.5155 -70.4977 1.14026 -38.8536 -70.2753 1.60849 
-39.9184 -70.4086 1.54472 -40.9211 -69.8975 1.07725 -40.5476 -70.5653 0.833711 
-37.7944 -70.5746 0.625355 -38.344 -70.2412 0.0479866 -40.0706 -69.8544 -0.0920678 
-40.9423 -70.1413 -0.138042 -41.0014 -70.5586 0.270222 -41.2306 -70.5359 -0.0853371 
-35.0895 -70.0231 -0.986486 -35.1699 -70.5253 -0.722515 -34.7345 -70.5286 -0.986317 
-36.0653 -70.5845 -0.594346 -37.0238 -70.1908 -0.645806 -37.8989 -70.0954 -0.914498 
-37.5432 -70.2455 -1.29963 -38.425 -70.3077 -0.937798 -40.1476 -69.7914 -0.928407 
-41.684 -70.4081 -0.798941 -42.0093 -69.7097 -1.14485 -35.0977 -70.3487 -1.4311 
-35.8285 -70.1015 -2.02821 -35.3898 -70.7774 -1.95901 -36.901 -69.8367 -2.06585 
-37.9523 -70.0821 -1.77311 -37.9645 -70.7819 -1.39256 -39.9864 -69.9632 -1.94794 
-42.1831 -70.6322 -1.52098 -41.9473 -70.236 -2.20288 -42.4511 -70.6479 -1.96452 
-36.1951 -69.9986 -2.93969 -35.4661 -70.511 -3.34208 -39.5548 -70.2545 -2.83618 
-40.0067 -70.4121 -2.59928 -40.3823 -70.605 -3.10005 -41.5201 -70.1089 -2.92929 
-42.1547 -70.5447 -2.50831 -35.962 -70.2261 -3.8756 -35.4623 -70.6609 -4.14946 
-36.6105 -69.894 -3.93571 -38.5725 -70.2061 -4.10466 -39.1667 -70.5565 -3.57703 
-41.011 -70.4361 -3.3195 -41.7999 -70.7845 -3.99045 -41.9684 -70.3826 -4.06304 
-41.9618 -70.473 -3.81237 -42.2788 -70.7242 -3.89138 -36.0123 -70.6329 -4.38964 
-36.9414 -70.5188 -4.3682 -37.8487 -70.6934 -4.50012 -38.7287 -70.5894 -4.9371 
-38.9675 -70.4184 -5.04709 -38.9947 -70.5013 -4.77581 -40.1043 -69.9408 -5.1135 
-39.186 -70.569 -4.94134 -40.4526 -70.7835 -4.99848 -41.0406 -70.4781 -4.74947 
-41.3307 -70.4459 -5.12975 -42.068 -70.772 -4.20938 -42.9988 -70.4834 -4.88045 
-42.8824 -70.7589 -5.05435 -43.0019 -70.3141 -5.05565 -43.153 -70.6286 -4.97759 
-38.8306 -70.7147 -5.35064 -40.8232 -70.5133 -5.33917 -43.0794 -70.6915 -5.19501 
-37.0931 -70.9968 2.03463 -37.0018 -71.6752 2.38453 -36.4962 -71.5187 1.68577 
-37.964 -71.3292 2.35677 -38.4902 -71.7825 1.98636 -40.046 -71.1628 1.90902 
-39.9717 -71.5889 2.18307 -39.7589 -71.4167 2.01003 -40.2318 -71.4438 1.82932 
-37.0658 -71.007 1.22557 -36.5928 -71.5877 0.882322 -39.2537 -71.4831 1.77086 
-40.5 -71.7813 1.14789 -37.2415 -71.3616 0.398251 -38.1135 -71.0895 -0.143222 
-37.5418 -71.5706 -0.0575623 -41.1013 -70.9614 -0.06919 -40.4647 -71.5462 0.258064 
-35.0052 -70.7608 -1.12483 -35.7045 -70.9804 -1.00903 -36.8318 -70.9552 -1.02962 
-37.9967 -71.7543 -0.485019 -38.849 -71.3222 -0.745557 -38.9377 -71.0736 -1.36361 
-39.3412 -71.733 -1.29352 -40.8192 -71.8839 -0.317392 -41.759 -71.3917 -0.685146 
-42.0827 -71.0162 -1.03746 -42.4473 -71.678 -1.12402 -33.1441 -71.2332 -1.95055 
-33.154 -71.7358 -1.71326 -32.612 -71.5222 -2.32158 -34.0106 -71.1935 -2.19404 
-33.9713 -71.6248 -1.58669 -34.922 -71.3985 -1.66875 -34.8561 -71.0311 -2.07281 
-36.0229 -71.5654 -1.52645 -37.2236 -71.3602 -1.63124 -38.1502 -71.1528 -1.83235 
-37.5476 -71.476 -2.03986 -38.8819 -71.2042 -2.03737 -39.4307 -71.5962 -1.97218 
-42.8939 -71.0654 -2.34375 -42.8779 -71.2946 -1.64154 -43.3562 -71.7318 -1.99764 
-32.9709 -71.2579 -2.65649 -32.5491 -71.7242 -3.22276 -33.5307 -71.4116 -2.84573 
-34.1217 -71.4022 -2.78555 -34.2468 -71.44 -3.20332 -34.7337 -71.0269 -2.88054 
-38.085 -71.5979 -2.46858 -39.0863 -71.5968 -2.54877 -39.7178 -70.8472 -3.28654 
-41.9869 -70.8815 -3.31365 -42.9718 -71.2274 -2.94392 -43.4337 -71.7876 -2.80431 
-33.0344 -71.5585 -3.28816 -33.9641 -71.5636 -3.59126 -33.6083 -71.7598 -4.14125 
-34.2423 -71.3253 -3.75654 -34.8393 -71.0008 -3.95091 -37.1578 -71.204 -4.16406 
-36.7338 -71.3508 -4.08825 -36.9729 -71.558 -3.87312 -37.2881 -71.7256 -4.1153 
-39.0068 -70.7812 -4.36309 -40.1898 -71.1988 -4.01909 -40.9108 -71.3607 -3.63446 
-40.7058 -71.712 -4.00065 -41.4757 -71.4386 -3.8919 -42.9305 -71.459 -3.60458 
-42.4974 -71.2837 -4.13015 -34.2123 -71.5224 -4.36028 -35.0971 -71.4489 -4.60325 
-36.1874 -71.3542 -4.47597 -37.6876 -71.4796 -4.72218 -38.2346 -70.9309 -4.98821 
-39.6026 -70.8726 -5.12608 -40.8457 -71.4398 -4.43027 -41.3005 -71.3849 -4.94114 
-41.943 -71.5241 -4.32181 -43.01 -71.1183 -4.79285 -42.6295 -71.6945 -5.13848 
-43.2604 -71.5226 -4.88213 -38.2412 -71.2985 -5.49344 -39.0227 -71.131 -5.90107 
-38.5225 -71.8347 -5.92604 -39.9799 -71.2036 -5.94625 -40.9571 -71.4241 -5.57835 
-40.4843 -71.7019 -6.32593 -43.0261 -71.5204 -5.27817 -39.2902 -71.6133 -6.38564 
-39.88 -71.5891 -6.45359 -38.0517 -72.2351 7.7975 -37.8958 -72.6398 8.21989 
-37.733 -72.3999 7.77408 -38.2238 -72.6942 8.04674 -37.9087 -72.2434 7.25441 
-37.5353 -72.6918 6.99369 -38.4472 -72.6769 7.161 -37.944 -72.5139 6.80183 
-35.9436 -71.9945 1.85672 -36.1874 -72.3478 2.4508 -35.4453 -72.4998 2.01864 
-36.8281 -72.509 2.66899 -37.7261 -72.4072 2.33095 -38.3097 -72.6347 1.83768 
-40.0529 -71.8987 1.85644 -35.2414 -72.2188 1.07835 -34.863 -72.6582 1.53907 
-34.6291 -72.8236 0.779229 -36.0232 -71.8816 0.96583 -39.0121 -72.7065 1.59737 
-39.8708 -72.4877 1.61138 -40.6852 -72.5342 1.34951 -40.9952 -72.2805 0.735556 
-41.2451 -72.6426 0.781892 -35.0477 -72.4225 0.324606 -35.311 -72.6517 -0.165469 
-35.7044 -72.204 0.199037 -36.7654 -71.9345 0.0496202 -40.0415 -72.1162 -0.11974 
-39.7783 -72.5268 -0.0964623 -40.3772 -72.553 0.318237 -40.6227 -72.544 -0.176548 
-41.0221 -72.2589 0.00617854 -41.4081 -72.4614 0.22321 -36.0008 -72.6502 -0.396347 
-37.0463 -72.4635 -0.693587 -37.9766 -72.1773 -0.955793 -37.4368 -72.6733 -1.12119 
-38.7532 -71.9596 -1.00252 -40.1219 -72.5412 -0.31869 -41.7005 -72.4119 -0.542995 
-42.4337 -72.6345 -1.11174 -32.7748 -72.0572 -2.10414 -33.3199 -72.3749 -1.85571 
-33.9975 -72.3715 -1.63905 -35.0306 -72.2202 -1.64013 -35.915 -72.2614 -1.91387 
-35.4093 -72.7711 -2.04916 -36.8467 -71.9173 -2.09306 -38.1182 -72.6257 -1.31752 
-38.9541 -72.475 -1.51769 -39.4554 -72.2436 -1.92604 -42.9874 -72.4098 -1.5061 
-43.4431 -72.5499 -2.11517 -33.0711 -72.8713 -2.39305 -32.4706 -72.2776 -2.82793 
-33.6621 -71.6571 -3.35986 -36.0701 -72.7108 -2.32825 -37.0521 -72.4405 -2.68747 
-37.9453 -72.1056 -3.01371 -37.4329 -72.6351 -3.13319 -38.7309 -72.0164 -3.07802 
-39.5612 -72.5466 -2.89157 -43.5885 -72.7015 -2.80086 -32.933 -71.8882 -3.89361 
-32.4432 -72.4822 -3.93655 -36.8567 -71.8623 -4.27499 -38.0898 -72.5827 -3.39462 
-38.9053 -72.6974 -3.59526 -41.2454 -71.8296 -4.28303 -42.8152 -71.7673 -4.4259 
-43.4587 -72.4067 -3.86526 -32.9837 -72.2841 -4.73395 -32.554 -72.8863 -4.92401 
-33.9506 -72.1769 -4.81491 -33.3683 -72.5206 -5.09863 -34.8582 -72.2054 -5.0049 
-34.4183 -72.5361 -5.09866 -35.8969 -72.0335 -4.92936 -36.9338 -72.2851 -4.94052 
-37.6116 -72.4982 -4.70451 -37.3258 -72.5528 -4.96115 -38.037 -71.9257 -5.20325 
-38.2028 -72.4671 -5.35249 -41.8156 -71.9083 -5.07133 -43.3969 -72.6415 -5.02032 
-33.1604 -72.7919 -5.31368 -35.059 -72.8031 -5.47943 -36.1705 -72.5509 -5.35634 
-36.7823 -72.8092 -5.23421 -38.4479 -72.6467 -6.15738 -41.24 -71.9082 -6.01683 
-41.9493 -72.2033 -6.05417 -42.8743 -72.4331 -5.68831 -42.4854 -72.5466 -6.11362 
-38.962 -72.3216 -6.4416 -39.8164 -72.282 -6.72912 -40.8948 -72.1954 -6.78488 
-40.3155 -72.689 -7.17154 -41.5554 -72.4471 -6.90204 -42.1538 -72.5809 -6.52175 
-41.0695 -72.8595 -7.36494 -47.0681 -73.3602 13.8561 -46.9791 -73.5556 14.1941 
-46.8001 -73.4446 13.8444 -47.1471 -73.6018 13.8527 -47.0504 -73.1734 12.8788 
-46.5566 -73.4956 13.0896 -47.3131 -73.4546 13.3046 -46.3116 -73.1266 11.9815 
-46.1904 -73.7646 12.4592 -45.4462 -73.7236 11.7886 -47.1269 -72.8796 11.7521 
-47.8396 -73.7764 12.6582 -47.8613 -73.146 11.8619 -48.5227 -73.6249 11.9305 
-46.0801 -73.1319 10.9756 -45.6154 -73.5452 10.9816 -46.8006 -72.882 11.076 
-47.6505 -73.0813 10.8362 -48.5205 -73.6671 10.9936 -45.9121 -73.5449 10.3571 
-46.4751 -73.4674 9.8988 -46.8378 -73.1593 10.2615 -47.5724 -73.4031 10.0365 
-48.0801 -73.6099 10.2716 -45.9956 -73.339 8.97013 -45.8256 -73.4914 9.1815 
[...]
CELL_DATA 37940
SCALARS scalars float
LOOKUP_TABLE default
1011 1011 1011 1011 1011 1011 1011 1011 1011 
1011 1011 1011 1011 1011 1011 1011 1011 1011 
1011 1011 1011 1011 1011 1011 1011 1011 1011 
1011 1011 1011 1011 1011 1011 1011 1011 1011 
1011 1011 1011 1011 1011 1011 1011 1011 1011 
1011 1011 1011 1011 1011 1011 1011 1011 1011 
1011 1011 1011 1011 1011 1011 1011 1011 1011 
1011 1011 1011 1011 1011 1011 1011 1011 1011 
1011 1011 1011 1011 1011 1011 1011 1011 1011 
1011 1011 1011 1011 1011 1011 1011 1011 1011 
1011 1011 1011 1011 1011 1011 1011 1011 1011 
1011 1011 1011 1011 1011 1011 1011 1011 1011 
1011 1011 1011 1011 1011 1011 1011 1011 1011 
1011 1011 1011 1011 1011 1011 1011 1011 1011 
1011 1011 1011 1011 1011 1011 1011 1011 1011 
1011 1011 1011 1011 1011 1011 1011 1011 1011 
1011 1011 1011 1011 1011 1011 1011 1011 1011 
1011 1011 1011 1011 1011 1011 1011 1011 1011 
1011 1011 1011 1011 1011 1011 1011 1011 1011 
1011 1011 1011 1011 1011 1011 1011 1011 1011 
1011 1011 1011 1011 1011 1011 1011 1011 1011 
1011 1011 1011 1011 1011 1011 1011 1011 1011 
1011 1011 1011 1011 1011 1011 1011 1011 1011 
1011 1011 1011 1011 1011 1011 1011 1011 1011 
1011 1011 1011 1011 1011 1011 1011 1011 1011 
1011 1011 1011 1011 1011 1011 1011 1011 1011 
1011 1011 1011 1011 1011 1011 1011 1011 1011 
1011 1011 1011 1011 1011 1011 1011 1011 1011 
1011 1011 1011 1011 1011 1011 1011 1011 1011 
1011 1011 1011 1011 1011 1011 1011 1011 1011 
1011 1011 1011 1011 1011 1011 1011 1011 1011 
1011 1011 1011 1011 1011 1011 1011 1011 1011 
1011 1011 1011 1011 1011 1011 1011 1011 1011 
1011 1011 1011 1011 1011 1011 1011 1011 1011 
1011 1011 1011 1011 1011 1011 1011 1011 1011 
1011 1011 1011 1011 1011 1011 1011 1011 1011 
1011 1011 1011 1011 1011 1011 1011 1011 1011 
1011 1011 1011 1011 1011 1011 1011 1011 1011 
1011 1011 1011 1011 1011 1011 1011 1011 1011 
1011 1011 1011 1011 1011 1011 1011 1011 1011 
1011 1011 1011 1011 1011 1011 1011 1011 1011 
1011 1011 1011 1011 1011 1011 1011 1011 1011 
1011 1011 1011 1011 1011 1011 1011 1011 1011 
1011 1011 1011 1011 1011 1011 1011 1011 1011 
1011 1011 1011 1011 1011 1011 1011 1011 1011 
1011 1011 1011 1011 1011 1011 1011 1011 1011 
1011 1011 1011 1011 1011 1011 1011 1011 1011 
1011 1011 1011 1011 1011 1011 1011 1011 1011 
1011 1011 1011 1011 1011 1011 1011 1011 1011 
1011 1011 1011 1011 1011 1011 1011 1011 1011 
1011 1011 1011 1011 1011 1011 1011 1011 1011 
1011 1011 1011 1011 1011 1011 1011 1011 1011 
1011 1011 1011 1011 1011 1011 1011 1011 1011 
1011 1011 1011 1011 1011 1011 1011 1011 1011 
1011 1011 1011 1011 1011 1011 1011 1011 1011 
1011 1011 1011 1011 1011 1011 1011 1011 1011 
1011 1011 1011 1011 1011 1011 1011 1011 1011 
1011 1011 1011 1011 1011 1011 1011 1011 1011 
1011 1011 1011 1011 1011 1011 1011 1011 1011 
1011 1011 1011 1011 1011 1011 1011 1011 1011 
1011 1011 1011 1011 1011 1011 1011 1011 1011 
1011 1011 1011 1011 1011 1011 1011 1011 1011 
1011 1011 1011 1011 1011 1011 1011 1011 1011 
1011 1011 1011 1011 1011 1011 1011 1011 1011 
1011 1011 1011 1011 1011 1011 1011 1011 1011 
1011 1011 1011 1011 1011 1011 1011 1011 1011 
1011 1011 1011 1011 1011 1011 1011 1011 1011 
1011 1011 1011 1011 1011 1011 1011 1011 1011 
1011 1011 1011 1011 1011 1011 1011 1011 1011 
1011 1011 1011 1011 1011 1011 1011 1011 1011 
1011 1011 1011 1011 1011 1011 1011 1011 1011 
1011 1011 1011 1011 1011 1011 1011 1011 1011 
1011 1011 1011 1011 1011 1011 1011 1011 1011 
1011 1011 1011 1011 1011 1011 1011 1011 1011 
1011 1011 1011 1011 1011 1011 1011 1011 1011 
1011 1011 1011 1011 1011 1011 1011 1011 1011 
1011 1011 1011 1011 1011 1011 1011 1011 1011 
1011 1011 1011 1011 1011 1011 1011 1011 1011 
1011 1011 1011 1011 1011 1011 1011 1011 1011 
1011 1011 1011 1011 1011 1011 1011 1011 1011 
1011 1011 1011 1011 1011 1011 1011 1011 1011 
1011 1011 1011 1011 1011 1011 1011 1011 1011 
1011 1011 1011 1011 1011 1011 1011 1011 1011 
1011 1011 1011 1011 1011 1011 1011 1011 1011 
1011 1011 1011 1011 1011 1011 1011 1011 1011 
1011 1011 1011 1011 1011 1011 1011 1011 1011 
1011 1011 1011 1011 1011 1011 1011 1011 1011 
1011 1011 1011 1011 1011 1011 1011 1011 1011 
1011 1011 1011 1011 1011 1011 1011 1011 1011 
1011 1011 1011 1011 1011 1011 1011 1011 1011 
1011 1011 1011 1011 1011 1011 1011 1011 1011 
1011 1011 1011 1011 1011 1011 1011 1011 1011 
1011 1011 1011 1011 1011 1011 1011 1011 1011 
1011 1011 1011 1011 1011 1011 1011 1011 1011 
1011 1011 1011 1011 1011 1011 1011 1011 1011 
1011 1011 1011 1011 1011 1011 1011 1011 1011 
1011 1011 1011 1011 1011 1011 1011 1011 1011 
1011 1011 1011 1011 1011 1011 1011 1011 1011 
1011 1011 1011 1011 1011 1011 1011 1011 1011 
1011 1011 1011 1011 1011 1011 1011 1011 1011 
1011 1011 1011 1011 1011 1011 1011 1011 1011 
1011 1011 1011 1011 1011 1011 1011 1011 1011 
1011 1011 1011 1011 1011 1011 1011 1011 1011 
1011 1011 1011 1011 1011 1011 1011 1011 1011 
1011 1011 1011 1011 1011 1011 1011 1011 1011 
1011 1011 1011 1011 1011 1011 1011 1011 1011 
1011 1011 1011 1011 1011 1011 1011 1011 1011 
1011 1011 1011 1011 1011 1011 1011 1011 1011 
1011 1011 1011 1011 1011 1011 1011 1011 1011 
1011 1011 1011 1011 1011 1011 1011 1011 1011 
1011 1011 1011 1011 1011 1011 1011 1011 1011 
1011 1011 1011 1011 1011 1011 1011 1011 1011 
1011 1011 1011 1011 1011 1011 1011 1011 1011 
1011 1011 1011 1011 1011 1011 1011 1011 1011 
1011 1011 1011 1011 1011 1011 1011 1011 1011 
1011 1011 1011 1011 1011 1011 1011 1011 1011 
1011 1011 1011 1011 1011 1011 1011 1011 1011 
1011 1011 1011 1011 1011 1011 1011 1011 1011 
1011 1011 1011 1011 1011 1011 1011 1011 1011 
1011 1011 1011 1011 1011 1011 1011 1011 1011 
1011 1011 1011 1011 1011 1011 1011 1011 1011 
1011 1011 1011 1011 1011 1011 1011 1011 1011 
1011 1011 1011 1011 1011 1011 1011 1011 1011 
1011 1011 1011 1011 1011 1011 1011 1011 1011 
1011 1011 1011 1011 1011 1011 1011 1011 1011 
1011 1011 1011 1011 1011 1011 1011 1011 1011 
1011 1011 1011 1011 1011 1011 1011 1011 1011 
1011 1011 1011 1011 1011 1011 1011 1011 1011 
1011 1011 1011 1011 1011 1011 1011 1011 1011 
1011 1011 1011 1011 1011 1011 1011 1011 1011 
1011 1011 1011 1011 1011 1011 1011 1011 1011 
1011 1011 1011 1011 1011 1011 1011 1011 1011 
1011 1011 1011 1011 1011 1011 1011 1011 1011 
1011 1011 1011 1011 1011 1011 1011 1011 1011 
1011 1011 1011 1011 1011 1011 1011 1011 1011 
1011 1011 1011 1011 1011 1011 1011 1011 1011 
1011 1011 1011 1011 1011 1011 1011 1011 1011 
1011 1011 1011 1011 1011 1011 1011 1011 1011 
1011 1011 1011 1011 1011 1011 1011 1011 1011 
1011 1011 1011 1011 1011 1011 1011 1011 1011 
1011 1011 1011 1011 1011 1011 1011 1011 1011 
1011 1011 1011 1011 1011 1011 1011 1011 1011 
1011 1011 1011 1011 1011 1011 1011 1011 1011 
1011 1011 1011 1011 1011 1011 1011 1011 1011 
1011 1011 1011 1011 1011 1011 1011 1011 1011 
1011 1011 1011 1011 1011 1011 1011 1011 1011 
1011 1011 1011 1011 1011 1011 1011 1011 1011 
1011 1011 1011 1011 1011 1011 1011 1011 1011 
1011 1011 1011 1011 1011 1011 1011 1011 1011 
1011 1011 1011 1011 1011 1011 1011 1011 1011 
1011 1011 1011 1011 1011 1011 1011 1011 1011 
1011 1011 1011 1011 1011 1011 1011 1011 1011 
1011 1011 1011 1011 1011 1011 1011 1011 1011 
1011 1011 1011 1011 1011 1011 1011 1011 1011 
1011 1011 1011 1011 1011 1011 1011 1011 1011 
1011 1011 1011 1011 1011 1011 1011 1011 1011 
1011 1011 1011 1011 1011 1011 1011 1011 1011 
1011 1011 1011 1011 1011 1011 1011 1011 1011 
1011 1011 1011 1011 1011 1011 1011 1011 1011 
1011 1011 1011 1011 1011 1011 1011 1011 1011 
1011 1011 1011 1011 1011 1011 1011 1011 1011 
1011 1011 1011 1011 1011 1011 1011 1011 1011 
1011 1011 1011 1011 1011 1011 1011 1011 1011 
1011 1011 1011 1011 1011 1011 1011 1011 1011 
1011 1011 1011 1011 1011 1011 1011 1011 1011 
1011 1011 1011 1011 1011 1011 1011 1011 1011 
1011 1011 1011 1011 1011 1011 1011 1011 1011 
1011 1011 1011 1011 1011 1011 1011 1011 1011 
1011 1011 1011 1011 1011 1011 1011 1011 1011 
1011 1011 1011 1011 1011 1011 1011 1011 1011 
1011 1011 1011 1011 1011 1011 1011 1011 1011 
1011 1011 1011 1011 1011 1011 1011 1011 1011 
1011 1011 1011 1011 1011 1011 1011 1011 1011 
1011 1011 1011 1011 1011 1011 1011 1011 1011 
1011 1011 1011 1011 1011 1011 1011 1011 1011 
1011 1011 1011 1011 1011 1011 1011 1011 1011 
1011 1011 1011 1011 1011 1011 1011 1011 1011 
1011 1011 1011 1011 1011 1011 1011 1011 1011 
1011 1011 1011 1011 1011 1011 1011 1011 1011 
1011 1011 1011 1011 1011 1011 1011 1011 1011 
1011 1011 1011 1011 1011 1011 1011 1011 1011 
1011 1011 1011 1011 1011 1011 1011 1011 1011 
1011 1011 1011 1011 1011 1011 1011 1011 1011 
1011 1011 1011 1011 1011 1011 1011 1011 1011 
1011 1011 1011 1011 1011 1011 1011 1011 1011 
1011 1011 1011 1011 1011 1011 1011 1011 1011 
1011 1011 1011 1011 1011 1011 1011 1011 1011 
1011 1011 1011 1011 1011 1011 1011 1011 1011 
1011 1011 1011 1011 1011 1011 1011 1011 1011 
1011 1011 1011 1011 1011 1011 1011 1011 1011 
1011 1011 1011 1011 1011 1011 1011 1011 1011 
1011 1011 1011 1011 1011 1011 1011 1011 1011 
1011 1011 1011 1011 1011 1011 1011 1011 1011 
1011 1011 1011 1011 1011 1011 1011 1011 1011 
1011 1011 1011 1011 1011 1011 1011 1011 1011 
1011 1011 1011 1011 1011 1011 1011 1011 1011 
1011 1011 1011 1011 1011 1011 1011 1011 1011 
1011 1011 1011 1011 1011 1011 1011 1011 1011 
1011 1011 1011 1011 1011 1011 1011 1011 1011 
1011 1011 1011 1011 1011 1011 1011 1011 1011 
1011 1011 1011 1011 1011 1011 1011 1011 1011 
1011 1011 1011 1011 1011 1011 1011 1011 1011 
1011 1011 1011 1011 1011 1011 1011 1011 1011 
1011 1011 1011 1011 1011 1011 1011 1011 1011 
1011 1011 1011 1011 1011 1011 1011 1011 1011 
1011 1011 1011 1011 1011 1011 1011 1011 1011 
1011 1011 1011 1011 1011 1011 1011 1011 1011 
1011 1011 1011 1011 1011 1011 1011 1011 1011 
1011 1011 1011 1011 1011 1011 1011 1011 1011 
1011 1011 1011 1011 1011 1011 1011 1011 1011 
1011 1011 1011 1011 1011 1011 1011 1011 1011 
1011 1011 1011 1011 1011 1011 1011 1011 1011 
1011 1011 1011 1011 1011 1011 1011 1011 1011 
1011 1011 1011 1011 1011 1011 1011 1011 1011 
1011 1011 1011 1011 1011 1011 1011 1011 1011 
1011 1011 1011 1011 1011 1011 1011 1011 1011 
1011 1011 1011 1011 1011 1011 1011 1011 1011 
1011 1011 1011 1011 1011 1011 1011 1011 1011 
1011 1011 1011 1011 1011 1011 1011 1011 1011 
1011 1011 1011 1011 1011 1011 1011 1011 1011 
1011 1011 1011 1011 1011 1011 1011 1011 1011 
1011 1011 1011 1011 1011 1011 1011 1011 1011 
1011 1011 1011 1011 1011 1011 1011 1011 1011 
1011 1011 1011 1011 1011 1011 1011 1011 1011 
1011 1011 1011 1011 1011 1011 1011 1011 1011 
1011 1011 1011 1011 1011 1011 1011 1011 1011 
1011 1011 1011 1011 1011 1011 1011 1011 1011 
1011 1011 1011 1011 1011 1011 1011 1011 1011 
1011 1011 1011 1011 1011 1011 1011 1011 1011 
1011 1011 1011 1011 1011 1011 1011 1011 1011 
1011 1011 1011 1011 1011 1011 1011 1011 1011 
1011 1011 1011 1011 1011 1011 1011 1011 1011 
1011 1011 1011 1011 1011 1011 1011 1011 1011 
1011 1011 1011 1011 1011 1011 1011 1011 1011 
1011 1011 1011 1011 1011 1011 1011 1011 1011 
1011 1011 1011 1011 1011 1011 1011 1011 1011 
1011 1011 1011 1011 1011 1011 1011 1011 1011 
1011 1011 1011 1011 1011 1011 1011 1011 1011 
1011 1011 1011 1011 1011 1011 1011 1011 1011 
1011 1011 1011 1011 1011 1011 1011 1011 1011 
1011 1011 1011 1011 1011 1011 1011 1011 1011 
1011 1011 1011 1011 1011 1011 1011 1011 1011 
1011 1011 1011 1011 1011 1011 1011 1011 1011 
1011 1011 1011 1011 1011 1011 1011 1011 1011 
1011 1011 1011 1011 1011 1011 1011 1011 1011 
1011 1011 1011 1011 1011 1011 1011 1011 1011 
1011 1011 1011 1011 1011 1011 1011 1011 1011 
1011 1011 1011 1011 1011 1011 1011 1011 1011 
1011 1011 1011 1011 1011 1011 1011 1011 1011 
1011 1011 1011 1011 1011 1011 1011 1011 1011 
1011 1011 1011 1011 1011 1011 1011 1011 1011 
1011 1011 1011 1011 1011 1011 1011 1011 1011 
1011 1011 1011 1011 1011 1011 1011 1011 1011 
1011 1011 1011 1011 1011 1011 1011 1011 1011 
1011 1011 1011 1011 1011 1011 1011 1011 1011 
1011 1011 1011 1011 1011 1011 1011 1011 1011 
1011 1011 1011 1011 1011 1011 1011 1011 1011 
1011 1011 1011 1011 1011 1011 1011 1011 1011 
1011 1011 1011 1011 1011 1011 1011 1011 1011 
1011 1011 1011 1011 1011 1011 1011 1011 1011 
1011 1011 1011 1011 1011 1011 1011 1011 1011 
1011 1011 1011 1011 1011 1011 1011 1011 1011 
1011 1011 1011 1011 1011 1011 1011 1011 1011 
1011 1011 1011 1011 1011 1011 1011 1011 1011 
1011 1011 1011 1011 1011 1011 1011 1011 1011 
1011 1011 1011 1011 1011 1011 1011 1011 1011 
1011 1011 1011 1011 1011 1011 1011 1011 1011 
1011 1011 1011 1011 1011 1011 1011 1011 1011 
1011 1011 1011 1011 1011 1011 1011 1011 1011 
1011 1011 1011 1011 1011 1011 1011 1011 1011 
1011 1011 1011 1011 1011 1011 1011 1011 1011 
1011 1011 1011 1011 1011 1011 1011 1011 1011 
1011 1011 1011 1011 1011 1011 1011 1011 1011 
1011 1011 1011 1011 1011 1011 1011 1011 1011 
1011 1011 1011 1011 1011 1011 1011 1011 1011 
1011 1011 1011 1011 1011 1011 1011 1011 1011 
1011 1011 1011 1011 1011 1011 1011 1011 1011 
1011 1011 1011 1011 1011 1011 1011 1011 1011 
1011 1011 1011 1011 1011 1011 1011 1011 1011 
1011 1011 1011 1011 1011 1011 1011 1011 1011 
1011 1011 1011 1011 1011 1011 1011 1011 1011 
1011 1011 1011 1011 1011 1011 1011 1011 1011 
1011 1011 1011 1011 1011 1011 1011 1011 1011 
1011 1011 1011 1011 1011 1011 1011 1011 1011 
1011 1011 1011 1011 1011 1011 1011 1011 1011 
1011 1011 1011 1011 1011 1011 1011 1011 1011 
1011 1011 1011 1011 1011 1011 1011 1011 1011 
1011 1011 1011 1011 1011 1011 1011 1011 1011 
1011 1011 1011 1011 1011 1011 1011 1011 1011 
1011 1011 1011 1011 1011 1011 1011 1011 1011 
1011 1011 1011 1011 1011 1011 1011 1011 1011 
1011 1011 1011 1011 1011 1011 1011 1011 1011 
1011 1011 1011 1011 1011 1011 1011 1011 1011 
1011 1011 1011 1011 1011 1011 1011 1011 1011 
1011 1011 1011 1011 1011 1011 1011 1011 1011 
1011 1011 1011 1011 1011 1011 1011 1011 1011 
1011 1011 1011 1011 1011 1011 1011 1011 1011 
1011 1011 1011 1011 1011 1011 1011 1011 1011 
1011 1011 1011 1011 1011 1011 1011 1011 1011 
1011 1011 1011 1011 1011 1011 1011 1011 1011 
1011 1011 1011 1011 1011 1011 1011 1011 1011 
1011 1011 1011 1011 1011 1011 1011 1011 1011 
1011 1011 1011 1011 1011 1011 1011 1011 1011 
1011 1011 1011 1011 1011 1011 1011 1011 1011 
1011 1011 1011 1011 1011 1011 1011 1011 1011 
1011 1011 1011 1011 1011 1011 1011 1011 1011 
1011 1011 1011 1011 1011 1011 1011 1011 1011 
1011 1011 1011 1011 1011 1011 1011 1011 1011 
1011 1011 1011 1011 1011 1011 1011 1011 1011 
1011 1011 1011 1011 1011 1011 1011 1011 1011 
1011 1011 1011 1011 1011 1011 1011 1011 1011 
1011 1011 1011 1011 1011 1011 1011 1011 1011 
1011 1011 1011 1011 1011 1011 1011 1011 1011 
1011 1011 1011 1011 1011 1011 1011 1011 1011 
1011 1011 1011 1011 1011 1011 1011 1011 1011 
1011 1011 1011 1011 1011 1011 1011 1011 1011 
1011 1011 1011 1011 1011 1011 1011 1011 1011 
1011 1011 1011 1011 1011 1011 1011 1011 1011 
1011 1011 1011 1011 1011 1011 1011 1011 1011 
1011 1011 1011 1011 1011 1011 1011 1011 1011 
1011 1011 1011 1011 1011 1011 1011 1011 1011 
1011 1011 1011 1011 1011 1011 1011 1011 1011 
1011 1011 1011 1011 1011 1011 1011 1011 1011 
1011 1011 1011 1011 1011 1011 1011 1011 1011 
1011 1011 1011 1011 1011 1011 1011 1011 1011 
1011 1011 1011 1011 1011 1011 1011 1011 1011 
1011 1011 1011 1011 1011 1011 1011 1011 1011 
1011 1011 1011 1011 1011 1011 1011 1011 1011 
1011 1011 1011 1011 1011 1011 1011 1011 1011 
1011 1011 1011 1011 1011 1011 1011 1011 1011 
1011 1011 1011 1011 1011 1011 1011 1011 1011 
1011 1011 1011 1011 1011 1011 1011 1011 1011 
1011 1011 1011 1011 1011 1011 1011 1011 1011 
1011 1011 1011 1011 1011 1011 1011 1011 1011 
1011 1011 1011 1011 1011 1011 1011 1011 1011 
1011 1011 1011 1011 1011 1011 1011 1011 1011 
1011 1011 1011 1011 1011 1011 1011 1011 1011 
1011 1011 1011 1011 1011 1011 1011 1011 1011 
1011 1011 1011 1011 1011 1011 1011 1011 1011 
1011 1011 1011 1011 1011 1011 1011 1011 1011 
1011 1011 1011 1011 1011 1011 1011 1011 1011 
1011 1011 1011 1011 1011 1011 1011 1011 1011 
1011 1011 1011 1011 1011 1011 1011 1011 1011 
1011 1011 1011 1011 1011 1011 1011 1011 1011 
1011 1011 1011 1011 1011 1011 1011 1011 1011 
1011 1011 1011 1011 1011 1011 1011 1011 1011 
1011 1011 1011 1011 1011 1011 1011 1011 1011 
1011 1011 1011 1011 1011 1011 1011 1011 1011 
1011 1011 1011 1011 1011 1011 1011 1011 1011 
1011 1011 1011 1011 1011 1011 1011 1011 1011 
1011 1011 1011 1011 1011 1011 1011 1011 1011 
1011 1011 1011 1011 1011 1011 1011 1011 1011 
1011 1011 1011 1011 1011 1011 1011 1011 1011 
1011 1011 1011 1011 1011 1011 1011 1011 1011 
1011 1011 1011 1011 1011 1011 1011 1011 1011 
1011 1011 1011 1011 1011 1011 1011 1011 1011 
1011 1011 1011 1011 1011 1011 1011 1011 1011 
1011 1011 1011 1011 1011 1011 1011 1011 1011 
1011 1011 1011 1011 1011 1011 1011 1011 1011 
1011 1011 1011 1011 1011 1011 1011 1011 1011 
1011 1011 1011 1011 1011 1011 1011 1011 1011 
1011 1011 1011 1011 1011 1011 1011 1011 1011 
1011 1011 1011 1011 1011 1011 1011 1011 1011 
1011 1011 1011 1011 1011 1011 1011 1011 1011 
1011 1011 1011 1011 1011 1011 1011 1011 1011 
1011 1011 1011 1011 1011 1011 1011 1011 1011 
1011 1011 1011 1011 1011 1011 1011 1011 1011 
1011 1011 1011 1011 1011 1011 1011 1011 1011 
1011 1011 1011 1011 1011 1011 1011 1011 1011 
1011 1011 1011 1011 1011 1011 1011 1011 1011 
1011 1011 1011 1011 1011 1011 1011 1011 1011 
1011 1011 1011 1011 1011 1011 1011 1011 1011 
1011 1011 1011 1011 1011 1011 1011 1011 1011 
1011 1011 1011 1011 1011 1011 1011 1011 1011 
1011 1011 1011 1011 1011 1011 1011 1011 1011 
1011 1011 1011 1011 1011 1011 1011 1011 1011 
1011 1011 1011 1011 1011 1011 1011 1011 1011 
1011 1011 1011 1011 1011 1011 1011 1011 1011 
1011 1011 1011 1011 1011 1011 1011 1011 1011 
1011 1011 1011 1011 1011 1011 1011 1011 1011 
1011 1011 1011 1011 1011 1011 1011 1011 1011 
1011 1011 1011 1011 1011 1011 1011 1011 1011 
1011 1011 1011 1011 1011 1011 1011 1011 1011 
1011 1011 1011 1011 1011 1011 1011 1011 1011 
1011 1011 1011 1011 1011 1011 1011 1011 1011 
1011 1011 1011 1011 1011 1011 1011 1011 1011 
1011 1011 1011 1011 1011 1011 1011 1011 1011 
1011 1011 1011 1011 1011 1011 1011 1011 1011 
1011 1011 1011 1011 1011 1011 1011 1011 1011 
1011 1011 1011 1011 1011 1011 1011 1011 1011 
1011 1011 1011 1011 1011 1011 1011 1011 1011 
1011 1011 1011 1011 1011 1011 1011 1011 1011 
1011 1011 1011 1011 1011 1011 1011 1011 1011 
1011 1011 1011 1011 1011 1011 1011 1011 1011 
1011 1011 1011 1011 1011 1011 1011 1011 1011 
1011 1011 1011 1011 1011 1011 1011 1011 1011 
1011 1011 1011 1011 1011 1011 1011 1011 1011 
1011 1011 1011 1011 1011 1011 1011 1011 1011 
1011 1011 1011 1011 1011 1011 1011 1011 1011 
1011 1011 1011 1011 1011 1011 1011 1011 1011 
1011 1011 1011 1011 1011 1011 1011 1011 1011 
1011 1011 1011 1011 1011 1011 1011 1011 1011 
1011 1011 1011 1011 1011 1011 1011 1011 1011 
1011 1011 1011 1011 1011 1011 1011 1011 1011 
1011 1011 1011 1011 1011 1011 1011 1011 1011 
1011 1011 1011 1011 1011 1011 1011 1011 1011 
1011 1011 1011 1011 1011 1011 1011 1011 1011 
1011 1011 1011 1011 1011 1011 1011 1011 1011 
1011 1011 1011 1011 1011 1011 1011 1011 1011 
1011 1011 1011 1011 1011 1011 1011 1011 1011 
1011 1011 1011 1011 1011 1011 1011 1011 1011 
1011 1011 1011 1011 1011 1011 1011 1011 1011 
1011 1011 1011 1011 1011 1011 1011 1011 1011 
1011 1011 1011 1011 1011 1011 1011 1011 1011 
1011 1011 1011 1011 1011 1011 1011 1011 1011 
1011 1011 1011 1011 1011 1011 1011 1011 1011 
1011 1011 1011 1011 1011 1011 1011 1011 1011 
1011 1011 1011 1011 1011 1011 1011 1011 1011 
1011 1011 1011 1011 1011 1011 1011 1011 1011 
1011 1011 1011 1011 1011 1011 1011 1011 1011 
1011 1011 1011 1011 1011 1011 1011 1011 1011 
1011 1011 1011 1011 1011 1011 1011 1011 1011 
1011 1011 1011 1011 1011 1011 1011 1011 1011 
1011 1011 1011 1011 1011 1011 1011 1011 1011 
1011 1011 1011 1011 1011 1011 1011 1011 1011 
1011 1011 1011 1011 1011 1011 1011 1011 1011 
1011 1011 1011 1011 1011 1011 1011 1011 1011 
1011 1011 1011 1011 1011 1011 1011 1011 1011 
1011 1011 1011 1011 1011 1011 1011 1011 1011 
1011 1011 1011 1011 1011 1011 1011 1011 1011 
1011 1011 1011 1011 1011 1011 1011 1011 1011 
1011 1011 1011 1011 1011 1011 1011 1011 1011 
1011 1011 1011 1011 1011 1011 1011 1011 1011 