# vtk DataFile Version 4.0
vtk output
ASCII
DATASET POLYDATA
POINTS 5508 float
46.803 46.8272 -1.29238 46.9886 46.2755 -0.636054 47.5107 46.601 -1.34513 
46.418 46.4184 -0.926135 47.0786 46.8448 -1.80656 47.515 46.5861 -1.90029 
46.097 46.664 -1.33554 46.0414 46.8779 -2.00933 44.8223 46.8462 -2.28933 
45.09 46.3438 -1.48317 44.3555 46.4193 -1.95304 42.9438 46.6182 -1.98259 
43.1986 46.3059 -1.77756 43.1926 46.5643 -2.01112 42.7191 46.1909 -2.05441 
46.9959 46.4187 -2.38404 45.9401 46.6699 -2.67356 45.3564 46.5321 -3.17856 
45.1556 46.8895 -2.78547 44.1176 46.6506 -2.4893 44.2789 46.8007 -2.97137 
42.9591 46.3738 -2.35716 43.6969 46.5051 -2.91041 44.6141 46.3774 -3.47757 
43.7729 46.2676 -3.35232 47.8077 45.8307 0.0750674 47.9122 45.2327 0.349982 
48.2999 45.5655 -0.154967 47.2847 45.9764 -0.0945794 47.2903 45.5541 0.305691 
46.6603 45.3691 -0.0392465 47.8964 46.0848 -0.676969 48.4382 45.4173 -0.9535 
45.6904 46.1113 -1.00337 46.0012 45.577 -0.565069 45.0985 45.8825 -1.01021 
45.2273 45.5049 -0.751459 44.5565 45.4366 -0.881548 47.9444 46.0504 -1.75488 
48.3837 45.1489 -2.06342 43.5942 46.3428 -2.22286 43.9526 45.8879 -1.49516 
43.1202 45.5547 -1.68771 42.5989 45.6482 -2.11793 47.7692 45.6761 -2.56082 
46.9113 45.9506 -3.12176 47.5761 45.494 -3.32779 46.0397 46.2691 -3.15095 
43.18 46.1271 -2.95779 42.5177 45.6001 -2.66466 46.8503 45.8622 -4.00509 
47.513 45.5071 -4.27177 45.9769 46.0419 -3.98515 45.1012 46.0585 -3.97073 
44.6852 45.3809 -4.17973 44.2761 45.434 -3.64406 43.1335 45.4771 -3.4047 
46.9945 45.8447 -4.87743 47.5107 45.5335 -5.33591 46.2221 45.9167 -5.04275 
45.2298 45.8387 -4.88304 44.6431 45.3639 -4.96665 46.9155 45.7585 -5.73431 
47.334 45.4589 -6.17823 46.3619 45.6408 -5.91034 45.5964 45.561 -5.65494 
44.8779 45.3527 -5.54855 46.8276 45.4746 -6.34641 47.9189 44.2696 0.437264 
48.4479 44.8045 -0.101172 47.1685 44.776 0.417033 46.4251 44.3839 0.204894 
44.0853 44.7425 -0.283084 43.9606 44.4768 0.129145 44.2079 44.3284 -0.058855 
43.7824 44.502 -0.0385347 48.6788 44.508 -1.06789 45.9793 44.7461 -0.245022 
44.9941 44.6257 -0.368906 43.7653 45.0931 -1.07005 43.542 44.4078 -0.682412 
48.7126 44.494 -2.14906 43.5036 44.4322 -1.70571 42.723 45.0177 -2.17303 
48.2083 45.0994 -3.05929 48.6601 44.6652 -2.96038 42.8661 44.1424 -2.3255 
42.0787 44.6269 -2.5651 41.9883 45.0078 -3.19672 41.1239 44.7346 -3.2722 
41.2225 44.4439 -2.80098 40.7526 44.4976 -3.00252 48.682 44.81 -3.93552 
49.0102 44.4938 -3.5384 49.4155 44.4379 -4.19891 48.0364 45.1344 -3.82268 
44.9436 44.8508 -3.88932 45.1686 44.4164 -3.94216 44.7492 44.5104 -3.76272 
43.8598 44.7384 -3.71913 42.8915 44.8805 -3.84219 43.4703 44.4026 -4.16696 
41.9651 44.8252 -3.89317 41.2216 44.3206 -3.64855 40.821 44.5065 -3.24987 
48.8938 44.8631 -5.04986 49.5476 44.5178 -5.31193 48.1446 45.1416 -4.75753 
44.988 44.5893 -4.23877 44.5615 44.4581 -4.96257 42.684 44.5261 -4.452 
41.8394 44.5008 -4.38113 48.8929 44.8186 -6.01283 49.3655 44.4722 -6.15597 
48.0423 45.1454 -5.95438 46.1682 45.2663 -6.35746 45.2419 44.9701 -6.2717 
44.5815 44.5326 -5.9328 48.8518 44.6111 -6.66001 48.5033 44.5533 -7.08805 
48.2014 44.8401 -6.80337 47.1419 45.0453 -6.83857 46.0335 44.8385 -6.94658 
45.3477 44.5676 -6.93589 44.8637 44.3426 -6.66726 47.9443 44.4108 -7.47572 
46.6433 44.3535 -7.59046 45.717 44.2609 -7.38091 45.9505 43.7665 0.649792 
46.0189 43.5188 1.11412 46.2927 43.5229 0.994425 45.7414 43.4938 0.979068 
47.9077 43.2704 0.653524 48.5638 43.5553 -0.0583714 46.8415 43.5811 0.636353 
45.7419 44.2246 -0.0221987 45.1709 43.1601 0.652609 45.0561 43.8475 0.0257633 
43.7577 44.1514 -0.138639 44.4089 43.3056 0.0159504 48.9593 43.8439 -0.850809 
48.977 43.3362 -0.679098 49.2251 43.431 -1.28328 44.0519 43.6605 -0.267255 
43.0967 43.554 -0.627459 43.1999 43.9174 -1.1946 42.5635 43.4003 -1.00402 
49.0287 44.0065 -1.70357 49.3365 43.5132 -2.13341 44.0879 43.8656 -1.95198 
44.3049 43.4849 -1.99338 43.8291 43.4739 -1.64738 42.8213 43.3289 -1.33778 
49.185 44.109 -2.95002 49.578 43.364 -2.91829 43.9296 43.5214 -2.42023 
42.8437 43.4431 -2.61312 41.8586 43.8018 -2.64014 41.0264 44.1465 -3.00988 
41.3972 43.6471 -3.09298 49.8231 43.8596 -3.793 50.0157 43.1615 -3.5651 
50.2721 43.5291 -4.23297 44.8167 44.1697 -4.2449 44.1684 44.1272 -4.14891 
41.2005 43.3951 -3.59654 41.0906 43.9804 -4.39257 40.6423 43.2301 -4.30445 
50.0354 44.0354 -4.75435 50.5308 43.4342 -5.12313 44.1795 43.8562 -4.94496 
43.3295 43.9679 -4.85407 42.0611 44.0682 -4.96796 41.1026 43.8071 -5.08024 
40.5973 43.526 -4.84932 49.9505 44.0388 -5.93182 50.5563 43.5027 -6.30445 
44.274 43.7133 -5.83759 43.6898 43.4695 -5.62001 42.7279 43.5285 -5.57426 
41.6024 43.3436 -5.6065 40.8253 43.2741 -5.32567 50.0552 43.7639 -6.82245 
50.5202 43.3234 -7.05586 49.1955 44.1392 -6.96148 45.0929 44.08 -7.14033 
44.6685 43.5492 -6.74332 49.9243 43.3856 -7.36229 48.9423 43.5966 -7.67221 
48.0652 43.9088 -7.98593 48.5776 43.3819 -8.0927 47.2832 43.974 -8.08536 
46.4451 43.4134 -8.24749 45.8141 43.5142 -7.72169 45.228 43.6704 -7.37269 
47.929 43.444 -8.36426 47.1365 43.2849 -8.63473 44.8934 42.6445 1.83093 
44.9637 42.4621 2.15127 45.1189 42.5673 1.82902 44.8263 42.3927 1.81515 
47.899 42.7087 1.02111 48.0201 42.5103 1.17127 48.2492 42.7537 0.793643 
47.7781 42.4586 1.07619 46.006 43.2851 0.912578 45.0359 42.8109 1.30182 
45.2636 42.5567 1.18417 44.7335 42.523 1.08919 48.4104 42.3688 0.0244588 
47.2868 42.3116 0.691294 45.8385 42.49 0.685834 43.8069 42.9123 -0.134323 
44.1171 42.4123 0.334386 43.3655 42.3483 0.00430953 49.0908 42.9059 -1.13331 
48.7367 42.5132 -0.850151 43.132 42.7794 -0.341958 42.1242 42.9797 -1.11194 
42.0888 42.4783 -0.56385 41.5352 42.396 -0.990859 48.9628 42.2942 -1.56904 
49.3369 42.7053 -2.05529 44.4372 42.6309 -2.19673 43.8209 42.3374 -1.68846 
43.0454 42.5627 -1.48546 41.9368 42.4719 -1.34328 49.6754 42.6614 -2.97114 
44.8752 42.9625 -3.08441 45.4379 42.3569 -3.23793 44.9864 42.377 -2.71103 
44.0825 43.1337 -3.07386 43.3097 42.9686 -3.12132 42.1175 43.0637 -3.01823 
50.1834 42.228 -3.48251 50.5746 42.8442 -4.17149 45.8096 42.8787 -3.79803 
46.2688 42.6494 -4.19693 45.9939 42.4155 -3.72547 45.2503 42.9093 -4.1941 
44.2079 42.8365 -3.76335 43.4232 42.5232 -3.7895 42.6419 42.4445 -3.53059 
41.7298 42.5962 -3.57272 41.032 42.8143 -3.9098 41.307 42.3362 -4.10826 
50.9417 42.8491 -4.89143 51.01 42.5328 -4.48516 51.4066 42.4288 -5.1374 
45.9941 42.7991 -4.6609 46.4378 42.3377 -4.89516 45.4653 42.6302 -4.9249 
44.7111 42.5085 -4.61407 43.9119 42.3853 -4.30335 40.7827 42.5904 -4.42131 
40.6046 42.8232 -4.95758 51.0478 42.9933 -5.77699 51.5471 42.4975 -6.28879 
45.9123 42.4672 -5.27516 44.092 43.0432 -6.26531 43.2274 42.9879 -6.10409 
42.2284 42.9313 -6.10855 41.5391 42.558 -6.04887 41.1415 42.4727 -5.51576 
51.0317 42.9432 -6.75582 51.3659 42.4368 -7.13708 45.1863 42.9978 -7.25226 
45.3519 42.1688 -6.75921 44.6976 42.5366 -6.56483 43.7689 42.2329 -6.53857 
42.6776 42.2959 -6.44309 41.895 42.2285 -6.35737 50.6786 42.6809 -7.508 
49.8123 42.7724 -7.76032 49.1725 42.934 -7.95732 49.6314 42.3357 -8.09421 
45.9378 43.0047 -8.087 45.6369 42.4953 -7.73715 48.8177 42.4802 -8.36362 
47.7954 42.7435 -8.7288 47.1755 42.7614 -9.06983 47.3666 42.3211 -8.93913 
46.6742 42.7616 -8.92435 46.1656 42.5971 -8.46075 46.9867 42.4904 -9.21687 
45.0518 42.3155 1.81322 47.9977 42.3104 0.777052 46.8552 41.691 0.994084 
46.9876 41.4728 1.15847 47.199 41.6501 0.91733 46.6517 41.264 0.859265 
45.0451 42.1991 1.1646 47.9898 41.8755 0.0173602 47.4777 41.5493 0.307845 
46.0414 41.5013 0.664235 44.7955 41.6245 0.589385 43.7797 41.3003 0.448388 
42.6482 42.0723 -0.0368175 43.1623 41.6538 0.31755 42.0816 41.8548 -0.0450377 
42.3067 41.3199 0.428959 41.5648 41.261 0.00367045 47.875 41.3682 -0.431492 
48.3754 41.5567 -0.954264 40.8869 41.9839 -1.08219 40.9734 41.5641 -0.621149 
40.1436 41.7239 -1.15626 40.1912 41.5418 -0.811661 39.5243 41.3469 -0.890632 
49.0511 41.8643 -2.20395 48.6932 41.4801 -1.91608 44.0862 41.9892 -1.97512 
43.5378 41.337 -2.06396 42.9386 41.434 -1.63493 42.0301 41.5458 -1.4927 
40.8436 41.5609 -1.44475 39.713 41.3027 -1.38933 48.937 41.284 -2.66365 
49.429 41.8267 -2.87016 45.0611 41.989 -2.96529 44.5378 41.4558 -2.98325 
44.0645 41.461 -2.48029 51.0812 42.1271 -4.14121 50.9666 41.3036 -3.61515 
51.6253 41.6095 -4.10576 49.7964 41.2877 -3.38099 46.2372 42.0372 -4.19599 
45.5399 41.4699 -4.00539 45.0332 41.4654 -3.48184 43.048 42.0756 -4.30888 
41.9851 42.0976 -4.12621 51.8276 41.8714 -4.76093 52.0475 41.5234 -4.46279 
52.4364 41.4532 -5.12022 47.0488 42.0165 -5.34087 47.4606 41.6759 -5.16494 
46.7158 41.6624 -4.74089 46.0497 41.3439 -4.49278 45.2374 42.2404 -5.31847 
44.1752 41.9704 -5.06518 43.1388 41.6952 -4.98139 41.9975 41.7816 -5.07944 
41.1587 42.1946 -4.75104 52.0324 41.9943 -5.77071 52.5676 41.5173 -6.26898 
47.8347 41.814 -5.7447 48.5291 41.4078 -6.05229 48.0926 41.2263 -5.52995 
47.2378 41.885 -5.98984 46.1501 42.0536 -5.88574 45.0433 42.0884 -5.96408 
44.4426 41.782 -6.21015 43.6339 41.4023 -5.55278 42.6558 41.3353 -5.49928 
41.9877 41.3707 -5.65448 41.6338 41.7529 -5.97698 51.9426 42.003 -6.95873 
52.5286 41.4864 -7.28718 47.991 41.4301 -6.29636 46.9043 41.2851 -6.50032 
45.7888 41.3427 -6.47324 45.0284 41.8735 -7.08572 44.8668 41.2982 -6.51852 
44.1977 41.7855 -7.00927 43.5917 41.5137 -6.99264 43.1388 41.4265 -6.56893 
42.2387 41.5582 -6.36416 51.8877 41.7906 -7.96119 52.334 41.4362 -8.12919 
51.233 42.1226 -7.83732 50.3812 42.0444 -8.21154 46.9923 41.8297 -8.25123 
47.3273 41.1917 -7.70069 46.8722 41.3604 -7.52001 45.8516 41.4185 -7.70082 
46.2285 42.0912 -8.26228 44.6446 41.301 -7.44082 43.8973 41.2114 -7.32311 
51.8182 41.5866 -8.62341 51.4742 41.5081 -9.04566 51.1405 41.7345 -8.69773 
50.5113 41.2989 -9.00079 49.8583 41.5295 -8.51001 48.9593 41.2233 -8.62767 
47.8168 41.6056 -8.47876 46.7349 42.2732 -8.86012 51.8931 41.7676 -10.2784 
52.1302 41.4887 -9.77984 52.4347 41.5743 -10.3753 51.0343 41.2646 -9.42404 
51.6192 41.4944 -9.97756 52.0388 41.7809 -10.8309 52.5135 41.4357 -11.0544 
[...]
CELL_DATA 11048
SCALARS scalars float
LOOKUP_TABLE default
2020 2020 2020 2020 2020 2020 2020 2020 2020 
2020 2020 2020 2020 2020 2020 2020 2020 2020 
2020 2020 2020 2020 2020 2020 2020 2020 2020 
2020 2020 2020 2020 2020 2020 2020 2020 2020 
2020 2020 2020 2020 2020 2020 2020 2020 2020 
2020 2020 2020 2020 2020 2020 2020 2020 2020 
2020 2020 2020 2020 2020 2020 2020 2020 2020 
2020 2020 2020 2020 2020 2020 2020 2020 2020 
2020 2020 2020 2020 2020 2020 2020 2020 2020 
2020 2020 2020 2020 2020 2020 2020 2020 2020 
2020 2020 2020 2020 2020 2020 2020 2020 2020 
2020 2020 2020 2020 2020 2020 2020 2020 2020 
2020 2020 2020 2020 2020 2020 2020 2020 2020 
2020 2020 2020 2020 2020 2020 2020 2020 2020 
2020 2020 2020 2020 2020 2020 2020 2020 2020 
2020 2020 2020 2020 2020 2020 2020 2020 2020 
2020 2020 2020 2020 2020 2020 2020 2020 2020 
2020 2020 2020 2020 2020 2020 2020 2020 2020 
2020 2020 2020 2020 2020 2020 2020 2020 2020 
2020 2020 2020 2020 2020 2020 2020 2020 2020 
2020 2020 2020 2020 2020 2020 2020 2020 2020 
2020 2020 2020 2020 2020 2020 2020 2020 2020 
2020 2020 2020 2020 2020 2020 2020 2020 2020 
2020 2020 2020 2020 2020 2020 2020 2020 2020 
2020 2020 2020 2020 2020 2020 2020 2020 2020 
2020 2020 2020 2020 2020 2020 2020 2020 2020 
2020 2020 2020 2020 2020 2020 2020 2020 2020 
2020 2020 2020 2020 2020 2020 2020 2020 2020 
2020 2020 2020 2020 2020 2020 2020 2020 2020 
2020 2020 2020 2020 2020 2020 2020 2020 2020 
2020 2020 2020 2020 2020 2020 2020 2020 2020 
2020 2020 2020 2020 2020 2020 2020 2020 2020 
2020 2020 2020 2020 2020 2020 2020 2020 2020 
2020 2020 2020 2020 2020 2020 2020 2020 2020 
2020 2020 2020 2020 2020 2020 2020 2020 2020 
2020 2020 2020 2020 2020 2020 2020 2020 2020 
2020 2020 2020 2020 2020 2020 2020 2020 2020 
2020 2020 2020 2020 2020 2020 2020 2020 2020 
2020 2020 2020 2020 2020 2020 2020 2020 2020 
2020 2020 2020 2020 2020 2020 2020 2020 2020 
2020 2020 2020 2020 2020 2020 2020 2020 2020 
2020 2020 2020 2020 2020 2020 2020 2020 2020 
2020 2020 2020 2020 2020 2020 2020 2020 2020 
2020 2020 2020 2020 2020 2020 2020 2020 2020 
2020 2020 2020 2020 2020 2020 2020 2020 2020 
2020 2020 2020 2020 2020 2020 2020 2020 2020 
2020 2020 2020 2020 2020 2020 2020 2020 2020 
2020 2020 2020 2020 2020 2020 2020 2020 2020 
2020 2020 2020 2020 2020 2020 2020 2020 2020 
2020 2020 2020 2020 2020 2020 2020 2020 2020 
2020 2020 2020 2020 2020 2020 2020 2020 2020 
2020 2020 2020 2020 2020 2020 2020 2020 2020 
2020 2020 2020 2020 2020 2020 2020 2020 2020 
2020 2020 2020 2020 2020 2020 2020 2020 2020 
2020 2020 2020 2020 2020 2020 2020 2020 2020 
2020 2020 2020 2020 2020 2020 2020 2020 2020 
2020 2020 2020 2020 2020 2020 2020 2020 2020 
2020 2020 2020 2020 2020 2020 2020 2020 2020 
2020 2020 2020 2020 2020 2020 2020 2020 2020 
2020 2020 2020 2020 2020 2020 2020 2020 2020 
2020 2020 2020 2020 2020 2020 2020 2020 2020 
2020 2020 2020 2020 2020 2020 2020 2020 2020 
2020 2020 2020 2020 2020 2020 2020 2020 2020 
2020 2020 2020 2020 2020 2020 2020 2020 2020 
2020 2020 2020 2020 2020 2020 2020 2020 2020 
2020 2020 2020 2020 2020 2020 2020 2020 2020 
2020 2020 2020 2020 2020 2020 2020 2020 2020 
2020 2020 2020 2020 2020 2020 2020 2020 2020 
2020 2020 2020 2020 2020 2020 2020 2020 2020 
2020 2020 2020 2020 2020 2020 2020 2020 2020 
2020 2020 2020 2020 2020 2020 2020 2020 2020 
2020 2020 2020 2020 2020 2020 2020 2020 2020 
2020 2020 2020 2020 2020 2020 2020 2020 2020 
2020 2020 2020 2020 2020 2020 2020 2020 2020 
2020 2020 2020 2020 2020 2020 2020 2020 2020 
2020 2020 2020 2020 2020 2020 2020 2020 2020 
2020 2020 2020 2020 2020 2020 2020 2020 2020 
2020 2020 2020 2020 2020 2020 2020 2020 2020 
2020 2020 2020 2020 2020 2020 2020 2020 2020 
2020 2020 2020 2020 2020 2020 2020 2020 2020 
2020 2020 2020 2020 2020 2020 2020 2020 2020 
2020 2020 2020 2020 2020 2020 2020 2020 2020 
2020 2020 2020 2020 2020 2020 2020 2020 2020 
2020 2020 2020 2020 2020 2020 2020 2020 2020 
2020 2020 2020 2020 2020 2020 2020 2020 2020 
2020 2020 2020 2020 2020 2020 2020 2020 2020 
2020 2020 2020 2020 2020 2020 2020 2020 2020 
2020 2020 2020 2020 2020 2020 2020 2020 2020 
2020 2020 2020 2020 2020 2020 2020 2020 2020 
2020 2020 2020 2020 2020 2020 2020 2020 2020 
2020 2020 2020 2020 2020 2020 2020 2020 2020 
2020 2020 2020 2020 2020 2020 2020 2020 2020 
2020 2020 2020 2020 2020 2020 2020 2020 2020 
2020 2020 2020 2020 2020 2020 2020 2020 2020 
2020 2020 2020 2020 2020 2020 2020 2020 2020 
2020 2020 2020 2020 2020 2020 2020 2020 2020 
2020 2020 2020 2020 2020 2020 2020 2020 2020 
2020 2020 2020 2020 2020 2020 2020 2020 2020 
2020 2020 2020 2020 2020 2020 2020 2020 2020 
2020 2020 2020 2020 2020 2020 2020 2020 2020 
2020 2020 2020 2020 2020 2020 2020 2020 2020 
2020 2020 2020 2020 2020 2020 2020 2020 2020 
2020 2020 2020 2020 2020 2020 2020 2020 2020 
2020 2020 2020 2020 2020 2020 2020 2020 2020 
2020 2020 2020 2020 2020 2020 2020 2020 2020 
2020 2020 2020 2020 2020 2020 2020 2020 2020 
2020 2020 2020 2020 2020 2020 2020 2020 2020 
2020 2020 2020 2020 2020 2020 2020 2020 2020 
2020 2020 2020 2020 2020 2020 2020 2020 2020 
2020 2020 2020 2020 2020 2020 2020 2020 2020 
2020 2020 2020 2020 2020 2020 2020 2020 2020 
2020 2020 2020 2020 2020 2020 2020 2020 2020 
2020 2020 2020 2020 2020 2020 2020 2020 2020 
2020 2020 2020 2020 2020 2020 2020 2020 2020 
2020 2020 2020 2020 2020 2020 2020 2020 2020 
2020 2020 2020 2020 2020 2020 2020 2020 2020 
2020 2020 2020 2020 2020 2020 2020 2020 2020 
2020 2020 2020 2020 2020 2020 2020 2020 2020 
2020 2020 2020 2020 2020 2020 2020 2020 2020 
2020 2020 2020 2020 2020 2020 2020 2020 2020 
2020 2020 2020 2020 2020 2020 2020 2020 2020 
2020 2020 2020 2020 2020 2020 2020 2020 2020 
2020 2020 2020 2020 2020 2020 2020 2020 2020 
2020 2020 2020 2020 2020 2020 2020 2020 2020 
2020 2020 2020 2020 2020 2020 2020 2020 2020 
2020 2020 2020 2020 2020 2020 2020 2020 2020 
2020 2020 2020 2020 2020 2020 2020 2020 2020 
2020 2020 2020 2020 2020 2020 2020 2020 2020 
2020 2020 2020 2020 2020 2020 2020 2020 2020 
2020 2020 2020 2020 2020 2020 2020 2020 2020 
2020 2020 2020 2020 2020 2020 2020 2020 2020 
2020 2020 2020 2020 2020 2020 2020 2020 2020 
2020 2020 2020 2020 2020 2020 2020 2020 2020 
2020 2020 2020 2020 2020 2020 2020 2020 2020 
2020 2020 2020 2020 2020 2020 2020 2020 2020 
2020 2020 2020 2020 2020 2020 2020 2020 2020 
2020 2020 2020 2020 2020 2020 2020 2020 2020 
2020 2020 2020 2020 2020 2020 2020 2020 2020 
2020 2020 2020 2020 2020 2020 2020 2020 2020 
2020 2020 2020 2020 2020 2020 2020 2020 2020 
2020 2020 2020 2020 2020 2020 2020 2020 2020 
2020 2020 2020 2020 2020 2020 2020 2020 2020 
2020 2020 2020 2020 2020 2020 2020 2020 2020 
2020 2020 2020 2020 2020 2020 2020 2020 2020 
2020 2020 2020 2020 2020 2020 2020 2020 2020 
2020 2020 2020 2020 2020 2020 2020 2020 2020 
2020 2020 2020 2020 2020 2020 2020 2020 2020 
2020 2020 2020 2020 2020 2020 2020 2020 2020 
2020 2020 2020 2020 2020 2020 2020 2020 2020 
2020 2020 2020 2020 2020 2020 2020 2020 2020 
2020 2020 2020 2020 2020 2020 2020 2020 2020 
2020 2020 2020 2020 2020 2020 2020 2020 2020 
2020 2020 2020 2020 2020 2020 2020 2020 2020 
2020 2020 2020 2020 2020 2020 2020 2020 2020 
2020 2020 2020 2020 2020 2020 2020 2020 2020 
2020 2020 2020 2020 2020 2020 2020 2020 2020 
2020 2020 2020 2020 2020 2020 2020 2020 2020 
2020 2020 2020 2020 2020 2020 2020 2020 2020 
2020 2020 2020 2020 2020 2020 2020 2020 2020 
2020 2020 2020 2020 2020 2020 2020 2020 2020 
2020 2020 2020 2020 2020 2020 2020 2020 2020 
2020 2020 2020 2020 2020 2020 2020 2020 2020 
2020 2020 2020 2020 2020 2020 2020 2020 2020 
2020 2020 2020 2020 2020 2020 2020 2020 2020 
2020 2020 2020 2020 2020 2020 2020 2020 2020 
2020 2020 2020 2020 2020 2020 2020 2020 2020 
2020 2020 2020 2020 2020 2020 2020 2020 2020 
2020 2020 2020 2020 2020 2020 2020 2020 2020 
2020 2020 2020 2020 2020 2020 2020 2020 2020 
2020 2020 2020 2020 2020 2020 2020 2020 2020 
2020 2020 2020 2020 2020 2020 2020 2020 2020 
2020 2020 2020 2020 2020 2020 2020 2020 2020 
2020 2020 2020 2020 2020 2020 2020 2020 2020 
2020 2020 2020 2020 2020 2020 2020 2020 2020 
2020 2020 2020 2020 2020 2020 2020 2020 2020 
2020 2020 2020 2020 2020 2020 2020 2020 2020 
2020 2020 2020 2020 2020 2020 2020 2020 2020 
2020 2020 2020 2020 2020 2020 2020 2020 2020 
2020 2020 2020 2020 2020 2020 2020 2020 2020 
2020 2020 2020 2020 2020 2020 2020 2020 2020 
2020 2020 2020 2020 2020 2020 2020 2020 2020 
2020 2020 2020 2020 2020 2020 2020 2020 2020 
2020 2020 2020 2020 2020 2020 2020 2020 2020 
2020 2020 2020 2020 2020 2020 2020 2020 2020 
2020 2020 2020 2020 2020 2020 2020 2020 2020 
2020 2020 2020 2020 2020 2020 2020 2020 2020 
2020 2020 2020 2020 2020 2020 2020 2020 2020 
2020 2020 2020 2020 2020 2020 2020 2020 2020 
2020 2020 2020 2020 2020 2020 2020 2020 2020 
2020 2020 2020 2020 2020 2020 2020 2020 2020 
2020 2020 2020 2020 2020 2020 2020 2020 2020 
2020 2020 2020 2020 2020 2020 2020 2020 2020 
2020 2020 2020 2020 2020 2020 2020 2020 2020 
2020 2020 2020 2020 2020 2020 2020 2020 2020 
2020 2020 2020 2020 2020 2020 2020 2020 2020 
2020 2020 2020 2020 2020 2020 2020 2020 2020 
2020 2020 2020 2020 2020 2020 2020 2020 2020 
2020 2020 2020 2020 2020 2020 2020 2020 2020 
2020 2020 2020 2020 2020 2020 2020 2020 2020 
2020 2020 2020 2020 2020 2020 2020 2020 2020 
2020 2020 2020 2020 2020 2020 2020 2020 2020 
2020 2020 2020 2020 2020 2020 2020 2020 2020 
2020 2020 2020 2020 2020 2020 2020 2020 2020 
2020 2020 2020 2020 2020 2020 2020 2020 2020 
2020 2020 2020 2020 2020 2020 2020 2020 2020 
2020 2020 2020 2020 2020 2020 2020 2020 2020 
2020 2020 2020 2020 2020 2020 2020 2020 2020 
2020 2020 2020 2020 2020 2020 2020 2020 2020 
2020 2020 2020 2020 2020 2020 2020 2020 2020 
2020 2020 2020 2020 2020 2020 2020 2020 2020 
2020 2020 2020 2020 2020 2020 2020 2020 2020 
2020 2020 2020 2020 2020 2020 2020 2020 2020 
2020 2020 2020 2020 2020 2020 2020 2020 2020 
2020 2020 2020 2020 2020 2020 2020 2020 2020 
2020 2020 2020 2020 2020 2020 2020 2020 2020 
2020 2020 2020 2020 2020 2020 2020 2020 2020 
2020 2020 2020 2020 2020 2020 2020 2020 2020 
2020 2020 2020 2020 2020 2020 2020 2020 2020 
2020 2020 2020 2020 2020 2020 2020 2020 2020 
2020 2020 2020 2020 2020 2020 2020 2020 2020 
2020 2020 2020 2020 2020 2020 2020 2020 2020 
2020 2020 2020 2020 2020 2020 2020 2020 2020 
2020 2020 2020 2020 2020 2020 2020 2020 2020 
2020 2020 2020 2020 2020 2020 2020 2020 2020 
2020 2020 2020 2020 2020 2020 2020 2020 2020 
2020 2020 2020 2020 2020 2020 2020 2020 2020 
2020 2020 2020 2020 2020 2020 2020 2020 2020 
2020 2020 2020 2020 2020 2020 2020 2020 2020 
2020 2020 2020 2020 2020 2020 2020 2020 2020 
2020 2020 2020 2020 2020 2020 2020 2020 2020 
2020 2020 2020 2020 2020 2020 2020 2020 2020 
2020 2020 2020 2020 2020 2020 2020 2020 2020 
2020 2020 2020 2020 2020 2020 2020 2020 2020 
2020 2020 2020 2020 2020 2020 2020 2020 2020 
2020 2020 2020 2020 2020 2020 2020 2020 2020 
2020 2020 2020 2020 2020 2020 2020 2020 2020 
2020 2020 2020 2020 2020 2020 2020 2020 2020 
2020 2020 2020 2020 2020 2020 2020 2020 2020 
2020 2020 2020 2020 2020 2020 2020 2020 2020 
2020 2020 2020 2020 2020 2020 2020 2020 2020 
2020 2020 2020 2020 2020 2020 2020 2020 2020 
2020 2020 2020 2020 2020 2020 2020 2020 2020 
2020 2020 2020 2020 2020 2020 2020 2020 2020 
2020 2020 2020 2020 2020 2020 2020 2020 2020 
2020 2020 2020 2020 2020 2020 2020 2020 2020 
2020 2020 2020 2020 2020 2020 2020 2020 2020 
2020 2020 2020 2020 2020 2020 2020 2020 2020 
2020 2020 2020 2020 2020 2020 2020 2020 2020 
2020 2020 2020 2020 2020 2020 2020 2020 2020 
2020 2020 2020 2020 2020 2020 2020 2020 2020 
2020 2020 2020 2020 2020 2020 2020 2020 2020 
2020 2020 2020 2020 2020 2020 2020 2020 2020 
2020 2020 2020 2020 2020 2020 2020 2020 2020 
2020 2020 2020 2020 2020 2020 2020 2020 2020 
2020 2020 2020 2020 2020 2020 2020 2020 2020 
2020 2020 2020 2020 2020 2020 2020 2020 2020 
2020 2020 2020 2020 2020 2020 2020 2020 2020 
2020 2020 2020 2020 2020 2020 2020 2020 2020 
2020 2020 2020 2020 2020 2020 2020 2020 2020 
2020 2020 2020 2020 2020 2020 2020 2020 2020 
2020 2020 2020 2020 2020 2020 2020 2020 2020 
2020 2020 2020 2020 2020 2020 2020 2020 2020 
2020 2020 2020 2020 2020 2020 2020 2020 2020 
2020 2020 2020 2020 2020 2020 2020 2020 2020 
2020 2020 2020 2020 2020 2020 2020 2020 2020 
2020 2020 2020 2020 2020 2020 2020 2020 2020 
2020 2020 2020 2020 2020 2020 2020 2020 2020 
2020 2020 2020 2020 2020 2020 2020 2020 2020 
2020 2020 2020 2020 2020 2020 2020 2020 2020 
2020 2020 2020 2020 2020 2020 2020 2020 2020 
2020 2020 2020 2020 2020 2020 2020 2020 2020 
2020 2020 2020 2020 2020 2020 2020 2020 2020 
2020 2020 2020 2020 2020 2020 2020 2020 2020 
2020 2020 2020 2020 2020 2020 2020 2020 2020 
2020 2020 2020 2020 2020 2020 2020 2020 2020 
2020 2020 2020 2020 2020 2020 2020 2020 2020 
2020 2020 2020 2020 2020 2020 2020 2020 2020 
2020 2020 2020 2020 2020 2020 2020 2020 2020 
2020 2020 2020 2020 2020 2020 2020 2020 2020 
2020 2020 2020 2020 2020 2020 2020 2020 2020 
2020 2020 2020 2020 2020 2020 2020 2020 2020 
2020 2020 2020 2020 2020 2020 2020 2020 2020 
2020 2020 2020 2020 2020 2020 2020 2020 2020 
2020 2020 2020 2020 2020 2020 2020 2020 2020 
2020 2020 2020 2020 2020 2020 2020 2020 2020 
2020 2020 2020 2020 2020 2020 2020 2020 2020 
2020 2020 2020 2020 2020 2020 2020 2020 2020 
2020 2020 2020 2020 2020 2020 2020 2020 2020 
2020 2020 2020 2020 2020 2020 2020 2020 2020 
2020 2020 2020 2020 2020 2020 2020 2020 2020 
2020 2020 2020 2020 2020 2020 2020 2020 2020 
2020 2020 2020 2020 2020 2020 2020 2020 2020 
2020 2020 2020 2020 2020 2020 2020 2020 2020 
2020 2020 2020 2020 2020 2020 2020 2020 2020 
2020 2020 2020 2020 2020 2020 2020 2020 2020 
2020 2020 2020 2020 2020 2020 2020 2020 2020 
2020 2020 2020 2020 2020 2020 2020 2020 2020 
2020 2020 2020 2020 2020 2020 2020 2020 2020 
2020 2020 2020 2020 2020 2020 2020 2020 2020 
2020 2020 2020 2020 2020 2020 2020 2020 2020 
2020 2020 2020 2020 2020 2020 2020 2020 2020 
2020 2020 2020 2020 2020 2020 2020 2020 2020 
2020 2020 2020 2020 2020 2020 2020 2020 2020 
2020 2020 2020 2020 2020 2020 2020 2020 2020 
2020 2020 2020 2020 2020 2020 2020 2020 2020 
2020 2020 2020 2020 2020 2020 2020 2020 2020 
2020 2020 2020 2020 2020 2020 2020 2020 2020 
2020 2020 2020 2020 2020 2020 2020 2020 2020 
2020 2020 2020 2020 2020 2020 2020 2020 2020 
2020 2020 2020 2020 2020 2020 2020 2020 2020 
2020 2020 2020 2020 2020 2020 2020 2020 2020 
2020 2020 2020 2020 2020 2020 2020 2020 2020 
2020 2020 2020 2020 2020 2020 2020 2020 2020 
2020 2020 2020 2020 2020 2020 2020 2020 2020 
2020 2020 2020 2020 2020 2020 2020 2020 2020 
2020 2020 2020 2020 2020 2020 2020 2020 2020 
2020 2020 2020 2020 2020 2020 2020 2020 2020 
2020 2020 2020 2020 2020 2020 2020 2020 2020 
2020 2020 2020 2020 2020 2020 2020 2020 2020 
2020 2020 2020 2020 2020 2020 2020 2020 2020 
2020 2020 2020 2020 2020 2020 2020 2020 2020 
2020 2020 2020 2020 2020 2020 2020 2020 2020 
2020 2020 2020 2020 2020 2020 2020 2020 2020 
2020 2020 2020 2020 2020 2020 2020 2020 2020 
2020 2020 2020 2020 2020 2020 2020 2020 2020 
2020 2020 2020 2020 2020 2020 2020 2020 2020 
2020 2020 2020 2020 2020 2020 2020 2020 2020 
2020 2020 2020 2020 2020 2020 2020 2020 2020 
2020 2020 2020 2020 2020 2020 2020 2020 2020 
2020 2020 2020 2020 2020 2020 2020 2020 2020 
2020 2020 2020 2020 2020 2020 2020 2020 2020 
2020 2020 2020 2020 2020 2020 2020 2020 2020 
2020 2020 2020 2020 2020 2020 2020 2020 2020 
2020 2020 2020 2020 2020 2020 2020 2020 2020 
2020 2020 2020 2020 2020 2020 2020 2020 2020 
2020 2020 2020 2020 2020 2020 2020 2020 2020 
2020 2020 2020 2020 2020 2020 2020 2020 2020 
2020 2020 2020 2020 2020 2020 2020 2020 2020 
2020 2020 2020 2020 2020 2020 2020 2020 2020 
2020 2020 2020 2020 2020 2020 2020 2020 2020 
2020 2020 2020 2020 2020 2020 2020 2020 2020 
2020 2020 2020 2020 2020 2020 2020 2020 2020 
2020 2020 2020 2020 2020 2020 2020 2020 2020 
2020 2020 2020 2020 2020 2020 2020 2020 2020 
2020 2020 2020 2020 2020 2020 2020 2020 2020 
2020 2020 2020 2020 2020 2020 2020 2020 2020 
2020 2020 2020 2020 2020 2020 2020 2020 2020 
2020 2020 2020 2020 2020 2020 2020 2020 2020 
2020 2020 2020 2020 2020 2020 2020 2020 2020 
2020 2020 2020 2020 2020 2020 2020 2020 2020 
2020 2020 2020 2020 2020 2020 2020 2020 2020 
2020 2020 2020 2020 2020 2020 2020 2020 2020 
2020 2020 2020 2020 2020 2020 2020 2020 2020 
2020 2020 2020 2020 2020 2020 2020 2020 2020 
2020 2020 2020 2020 2020 2020 2020 2020 2020 
2020 2020 2020 2020 2020 2020 2020 2020 2020 
2020 2020 2020 2020 2020 2020 2020 2020 2020 
2020 2020 2020 2020 2020 2020 2020 2020 2020 
2020 2020 2020 2020 2020 2020 2020 2020 2020 
2020 2020 2020 2020 2020 2020 2020 2020 2020 
2020 2020 2020 2020 2020 2020 2020 2020 2020 
2020 2020 2020 2020 2020 2020 2020 2020 2020 
2020 2020 2020 2020 2020 2020 2020 2020 2020 
2020 2020 2020 2020 2020 2020 2020 2020 2020 
2020 2020 2020 2020 2020 2020 2020 2020 2020 
2020 2020 2020 2020 2020 2020 2020 2020 2020 
2020 2020 2020 2020 2020 2020 2020 2020 2020 
2020 2020 2020 2020 2020 2020 2020 2020 2020 
2020 2020 2020 2020 2020 2020 2020 2020 2020 
2020 2020 2020 2020 2020 2020 2020 2020 2020 
2020 2020 2020 2020 2020 2020 2020 2020 2020 
2020 2020 2020 2020 2020 2020 2020 2020 2020 
2020 2020 2020 2020 2020 2020 2020 2020 2020 
2020 2020 2020 2020 2020 2020 2020 2020 2020 
2020 2020 2020 2020 2020 2020 2020 2020 2020 
2020 2020 2020 2020 2020 2020 2020 2020 2020 
2020 2020 2020 2020 2020 2020 2020 2020 2020 
2020 2020 2020 2020 2020 2020 2020 2020 2020 
2020 2020 2020 2020 2020 2020 2020 2020 2020 
2020 2020 2020 2020 2020 2020 2020 2020 2020 
2020 2020 2020 2020 2020 2020 2020 2020 2020 
2020 2020 2020 2020 2020 2020 2020 2020 2020 
2020 2020 2020 2020 2020 2020 2020 2020 2020 
2020 2020 2020 2020 2020 2020 2020 2020 2020 
2020 2020 2020 2020 2020 2020 2020 2020 2020 
2020 2020 2020 2020 2020 2020 2020 2020 2020 
2020 2020 2020 2020 2020 2020 2020 2020 2020 
2020 2020 2020 2020 2020 2020 2020 2020 2020 
2020 2020 2020 2020 2020 2020 2020 2020 2020 
2020 2020 2020 2020 2020 2020 2020 2020 2020 
2020 2020 2020 2020 2020 2020 2020 2020 2020 
2020 2020 2020 2020 2020 2020 2020 2020 2020 
2020 2020 2020 2020 2020 2020 2020 2020 2020 
2020 2020 2020 2020 2020 2020 2020 2020 2020 
2020 2020 2020 2020 2020 2020 2020 2020 2020 
2020 2020 2020 2020 2020 2020 2020 2020 2020 
2020 2020 2020 2020 2020 2020 2020 2020 2020 
2020 2020 2020 2020 2020 2020 2020 2020 2020 
2020 2020 2020 2020 2020 2020 2020 2020 2020 
2020 2020 2020 2020 2020 2020 2020 2020 2020 
2020 2020 2020 2020 2020 2020 2020 2020 2020 
2020 2020 2020 2020 2020 2020 2020 2020 2020 
2020 2020 2020 2020 2020 2020 2020 2020 2020 
2020 2020 2020 2020 2020 2020 2020 2020 2020 
2020 2020 2020 2020 2020 2020 2020 2020 2020 
2020 2020 2020 2020 2020 2020 2020 2020 2020 
2020 2020 2020 2020 2020 2020 2020 2020 2020 
2020 2020 2020 2020 2020 2020 2020 2020 2020 
2020 2020 2020 2020 2020 2020 2020 2020 2020 
2020 2020 2020 2020 2020 2020 2020 2020 2020 
2020 2020 2020 2020 2020 2020 2020 2020 2020 
2020 2020 2020 2020 2020 2020 2020 2020 2020 
2020 2020 2020 2020 2020 2020 2020 2020 2020 
2020 2020 2020 2020 2020 2020 2020 2020 2020 
2020 2020 2020 2020 2020 2020 2020 2020 2020 
2020 2020 2020 2020 2020 2020 2020 2020 2020 
2020 2020 2020 2020 2020 2020 2020 2020 2020 
2020 2020 2020 2020 2020 2020 2020 2020 2020 
2020 2020 2020 2020 2020 2020 2020 2020 2020 
2020 2020 2020 2020 2020 2020 2020 2020 2020 
2020 2020 2020 2020 2020 2020 2020 2020 2020 
2020 2020 2020 2020 2020 2020 2020 2020 2020 
2020 2020 2020 2020 2020 2020 2020 2020 2020 
2020 2020 2020 2020 2020 2020 2020 2020 2020 
2020 2020 2020 2020 2020 2020 2020 2020 2020 
2020 2020 2020 2020 2020 2020 2020 2020 2020 
2020 2020 2020 2020 2020 2020 2020 2020 2020 
2020 2020 2020 2020 2020 2020 2020 2020 2020 
2020 2020 2020 2020 2020 2020 2020 2020 2020 
2020 2020 2020 2020 2020 2020 2020 2020 2020 
2020 2020 2020 2020 2020 2020 2020 2020 2020 
2020 2020 2020 2020 2020 2020 2020 2020 2020 
2020 2020 2020 2020 2020 2020 2020 2020 2020 