# vtk DataFile Version 4.0
vtk output
ASCII
DATASET POLYDATA
POINTS 2474 float
-57.223 -11.3115 4.02625 -56.7632 -11.7463 4.28925 -56.7796 -11.5572 3.79944 
-57.7583 -11.2868 3.90444 -57.6272 -11.6414 4.41328 -58.2317 -11.5388 4.11138 
-54.0846 -11.2663 2.7435 -53.7093 -11.7083 3.2557 -53.5757 -11.402 2.66394 
-54.4204 -11.6824 3.09248 -57.3873 -11.4633 3.52603 -58.0902 -11.5304 3.62927 
-53.9666 -11.2435 2.20328 -53.6023 -11.4092 2.08239 -54.5149 -11.6641 2.03137 
-57.0519 -11.3765 1.84206 -56.8343 -11.5349 2.13614 -56.6342 -11.6382 1.7801 
-57.2964 -11.5542 2.03327 -53.8455 -11.7224 1.55161 -57.1491 -11.8405 1.59896 
-61.0045 -11.3154 -0.0571357 -60.9896 -11.4223 0.244153 -60.7663 -11.5216 -0.0906733 
-61.3444 -11.7598 -0.0480542 -61.0432 -11.5687 -0.497743 -58.3385 -12.0266 4.7854 
-58.2308 -12.6207 5.36977 -57.6595 -12.4159 5.04056 -59.2409 -12.1287 4.84974 
-58.8237 -12.497 5.30662 -60.2385 -12.1363 4.90739 -59.8081 -12.7392 5.52168 
-61.2619 -12.1021 4.90271 -60.8131 -12.4692 5.36276 -62.2229 -12.1714 4.77688 
-61.6768 -12.5315 5.25429 -62.2965 -12.6371 4.9659 -55.0584 -12.154 3.75825 
-55.0287 -12.5161 4.39238 -54.5303 -12.6122 4.18211 -56.1552 -11.9414 3.83631 
-55.8605 -12.3904 4.47653 -56.9279 -12.3522 4.69378 -58.8726 -11.8843 3.81832 
-59.9877 -11.9865 4.01036 -60.9937 -11.9719 4.03202 -62.0574 -11.955 4.02592 
-62.8169 -12.6141 4.53664 -63.1507 -12.1447 3.90832 -63.5281 -12.8476 3.83654 
-52.3316 -12.1864 2.8917 -52.2489 -12.8129 3.20492 -51.8055 -12.4526 2.73354 
-53.0541 -11.8626 3.01996 -52.9692 -12.391 3.40188 -53.8882 -12.511 3.66909 
-55.1097 -11.8641 2.69975 -55.8152 -11.9958 3.11251 -56.9166 -11.7842 2.86181 
-58.0467 -11.8374 3.05532 -58.8447 -12.1657 2.72425 -59.9069 -12.1522 2.97945 
-61.0122 -11.9919 2.98495 -62.0315 -11.9468 2.95859 -63.0823 -11.9579 2.9386 
-63.9591 -12.4248 3.38873 -63.9791 -12.1681 2.84379 -64.3036 -12.5558 2.71687 
-51.8036 -12.0889 1.98398 -51.3357 -12.5771 2.04931 -52.8545 -11.8883 1.97085 
-55.1089 -12.0042 1.99671 -55.9399 -11.9783 2.14313 -57.9174 -11.992 2.12566 
-58.465 -12.448 2.06186 -59.0157 -12.718 2.46139 -59.9999 -12.6287 2.38795 
-60.4627 -12.5148 1.69047 -60.9906 -12.1151 2.01982 -62.054 -11.9787 1.93255 
-62.9158 -11.9602 2.02499 -63.768 -12.1581 1.81006 -64.2999 -12.4437 2.11374 
-50.1945 -12.254 1.02299 -49.7621 -12.7012 1.24949 -49.6992 -12.4925 0.793005 
-50.9858 -12.1756 1.13572 -50.5916 -12.6502 1.5107 -51.8555 -12.1814 1.09435 
-52.545 -12.4015 1.07244 -53.2618 -12.2914 1.17888 -53.8808 -12.2667 0.939586 
-53.4592 -12.6837 0.767836 -54.3762 -12.3141 1.07617 -55.1434 -12.5936 1.43404 
-56.2038 -12.3266 1.51141 -56.8015 -12.7236 1.50674 -57.7174 -12.462 1.65576 
-61.022 -11.9377 0.756657 -60.3435 -12.4158 0.918501 -61.9038 -12.0397 1.15558 
-62.9168 -12.153 1.08833 -63.6052 -12.6697 1.08775 -64.0619 -12.6824 1.60211 
-50.3251 -12.5943 0.498805 -51.2499 -12.6288 0.544721 -52.1762 -12.7827 0.607848 
-53.9359 -12.8744 0.629574 -60.2494 -12.0594 -0.0214005 -59.9171 -12.6588 0.569812 
-59.6638 -12.6161 -0.179923 -62.1729 -12.4809 0.327614 -61.7002 -12.5145 -0.393255 
-63.0687 -12.7314 0.595309 -59.9921 -12.1962 -0.898546 -59.6557 -12.8052 -1.04239 
-60.665 -11.9679 -0.970057 -61.3005 -12.2287 -0.875695 -60.2924 -12.6202 -1.49704 
-60.9838 -12.6742 -1.44119 -55.0074 -13.346 6.98434 -54.9407 -13.6724 7.19848 
-54.7744 -13.7057 6.73147 -55.2265 -13.7824 6.94421 -57.3157 -13.2595 6.97673 
-57.1165 -13.8524 7.3954 -56.7683 -13.7901 6.79425 -58.0163 -13.2398 6.81607 
-57.7637 -13.4754 7.38362 -58.2988 -13.7234 7.03921 -60.0668 -13.3735 6.82481 
-59.9241 -13.7945 7.23692 -59.7454 -13.5404 6.80017 -60.2532 -13.8341 7.05263 
-55.0819 -13.5902 6.55158 -57.136 -13.407 6.40373 -57.2249 -13.4412 5.807 
-57.8034 -13.0767 5.9289 -58.5571 -13.7574 5.9882 -60.0739 -13.2123 6.16956 
-59.6547 -13.663 6.18417 -60.411 -13.726 6.0858 -55.0752 -13.0434 4.77614 
-55.2436 -13.7301 5.17098 -54.627 -13.6479 4.74261 -56.2646 -13.0456 4.98785 
-55.8371 -13.5835 5.26985 -57.1509 -13.0325 5.23242 -56.6556 -13.7278 5.52641 
-58.9735 -13.2671 5.59112 -60.9879 -13.2102 5.50616 -61.8947 -13.0947 5.10753 
-61.6283 -13.8815 4.99251 -54.1575 -13.1153 4.23604 -53.9814 -13.7506 4.35503 
-53.543 -13.3721 3.88793 -62.3273 -13.3297 4.73007 -62.9311 -13.4581 4.30999 
-63.3653 -13.7678 3.71192 -51.7748 -13.0569 2.75494 -52.2004 -13.4433 3.05329 
-52.8587 -13.2976 3.47841 -64.0497 -12.8497 3.06138 -63.7603 -13.4149 2.95273 
-50.9945 -12.9892 1.91394 -51.2683 -13.3493 2.35015 -50.6567 -13.4561 1.99835 
-51.7427 -13.6576 2.76288 -57.3459 -13.1259 1.89208 -56.5608 -13.4321 1.83105 
-56.9422 -13.9124 2.32378 -58.0729 -13.4347 2.33671 -58.1455 -12.8565 2.00779 
-59.1135 -13.4531 2.36366 -59.9106 -13.0592 2.04046 -59.487 -13.5723 1.7449 
-64.1486 -12.9483 2.25607 -63.7308 -13.4705 1.81276 -49.0623 -12.9338 0.729268 
-49.221 -13.31 1.36343 -48.4802 -13.4721 0.937581 -49.9136 -13.3806 1.66211 
-52.8677 -12.7604 0.798097 -54.5021 -13.3461 0.9693 -55.0716 -13.4671 1.33629 
-55.8017 -13.3239 1.54234 -60.003 -12.9764 1.34483 -59.4967 -13.3629 0.71398 
-63.3678 -13.4705 0.983857 -48.1786 -13.2366 0.173896 -47.7474 -13.5605 0.359861 
-47.4952 -13.625 -0.149274 -48.794 -13.1108 -0.0370191 -49.6391 -12.9939 0.0942753 
-50.5097 -13.5878 -0.20118 -51.0611 -13.3921 0.175538 -52.0462 -13.603 0.24428 
-53.051 -13.29 0.473449 -53.7454 -13.7628 0.571778 -59.3168 -13.3705 -0.357323 
-61.999 -13.0772 -0.318459 -62.4216 -13.6037 0.0780219 -62.863 -13.4588 0.52505 
-48.0427 -13.5912 -0.396793 -49.1012 -13.5686 -0.60639 -49.9912 -13.6211 -0.613931 
-59.3787 -13.5823 -1.14271 -61.4906 -13.3599 -0.878949 -62.1138 -13.779 -0.440468 
-59.8725 -13.4919 -1.56097 -60.6557 -13.5534 -1.47507 -55.0459 -14.2387 7.18626 
-54.7314 -14.2225 7.00305 -55.2595 -14.5856 6.83263 -57.2254 -14.5605 7.36017 
-56.7531 -14.5313 6.98101 -57.8475 -14.1835 7.3997 -58.3362 -14.4108 6.67788 
-60.0778 -14.3656 7.26191 -59.7797 -14.2685 6.99622 -60.2313 -14.3573 6.76869 
-54.9255 -14.0674 6.10766 -54.5491 -14.5838 6.28495 -55.3336 -14.397 6.23095 
-56.8879 -13.7992 6.1326 -56.5163 -14.4367 6.1554 -58.4647 -14.4531 5.90077 
-59.9217 -14.463 6.59815 -59.8428 -14.0085 5.82717 -53.0799 -14.2649 4.83843 
-52.9233 -14.5981 5.35533 -52.4261 -14.4735 4.84515 -53.927 -14.2128 4.74997 
-53.7051 -14.5798 5.36282 -55.0123 -14.6733 5.65795 -55.1847 -14.1668 5.0064 
-54.4441 -14.6287 5.06966 -55.887 -14.2671 5.42273 -55.4404 -14.6437 5.07405 
-59.165 -14.021 5.13085 -58.5263 -14.4921 5.18926 -60.0107 -14.2418 5.03353 
-60.9275 -14.2396 5.20064 -60.6064 -14.6977 4.80698 -61.4272 -14.5186 4.93148 
-52.1352 -14.2466 4.01084 -51.8139 -14.6051 4.39948 -51.3824 -14.5219 3.75425 
-53.0826 -13.8998 4.04612 -54.7359 -14.3214 4.76009 -58.8659 -14.74 4.63016 
-59.9263 -14.7329 4.66377 -62.0205 -14.4269 4.48526 -62.8834 -14.1501 4.0631 
-62.5406 -14.5887 4.0101 -51.1518 -14.1009 2.87102 -50.8203 -14.6429 3.31342 
-50.3888 -14.5234 2.76202 -52.1839 -13.8838 3.24992 -62.8796 -14.6447 3.6066 
-63.3898 -14.3483 2.78924 -49.0832 -14.0408 1.75186 -48.9235 -14.6499 2.2682 
-48.3973 -14.4499 1.78295 -50.1265 -14.0768 2.19405 -49.6622 -14.5925 2.49474 
-55.0572 -14.0604 1.72956 -54.4622 -14.5797 1.93904 -55.0339 -14.5646 2.3627 
-55.8634 -14.466 2.52404 -56.0225 -13.9148 2.0188 -56.876 -14.5894 2.73447 
-57.9506 -14.4466 2.40663 -58.8994 -14.0978 2.05047 -58.4662 -14.604 1.70659 
-63.3543 -14.3234 1.7313 -47.1644 -14.2472 0.91258 -46.8621 -14.5963 1.25516 
-46.5015 -14.7199 0.583164 -47.9332 -14.0015 1.05149 -47.6376 -14.4893 1.52151 
-54.1736 -14.1489 1.15 -53.6217 -14.5186 0.95656 -53.9843 -14.568 1.42969 
-59.0379 -14.1058 1.27933 -58.5157 -14.5905 0.751331 -63.1178 -14.157 1.05933 
-62.7251 -14.5479 0.791108 -62.9993 -14.7837 1.54014 -47.108 -14.0675 0.234052 
-46.6949 -14.7631 -0.0771957 -51.0996 -13.9446 -0.124994 -51.6536 -14.1538 -0.118883 
-52.2512 -14.4482 -0.0488643 -52.9093 -14.3272 0.360174 -58.9885 -14.0519 0.226228 
-58.497 -14.5569 -0.33657 -61.2163 -14.2351 -0.322053 -60.746 -14.516 -0.265244 
-60.9151 -14.7823 0.120179 -61.4358 -14.9294 -0.0669534 -62.4169 -14.5961 0.00755798 
-47.2244 -14.2862 -0.393222 -48.0607 -14.3587 -0.774925 -48.9737 -14.1225 -1.0793 
-48.4554 -14.64 -1.20183 -49.7079 -14.0439 -1.13963 -50.4138 -14.3384 -0.858885 
-51.1458 -14.3689 -0.405371 -51.7826 -14.6811 -0.283132 -58.9958 -14.1054 -0.786209 
-58.6784 -14.6214 -1.24676 -60.9297 -14.0136 -0.833224 -60.4776 -14.5098 -0.932898 
-61.9276 -14.5057 -0.425557 -49.0757 -14.6245 -1.45158 -49.7319 -14.754 -1.39205 
-59.3463 -14.4839 -1.54935 -60.0659 -14.2847 -1.49465 -50.122 -15.4051 6.96707 
-50.1009 -15.561 7.15229 -49.6699 -15.7628 6.94658 -50.294 -15.6982 7.02701 
-54.7982 -14.88 6.81938 -56.0038 -15.4405 6.77971 -55.9641 -15.5825 7.12088 
-55.7399 -15.5602 7.01217 -57.2155 -15.0156 6.89724 -56.2103 -15.7444 6.92077 
-57.7712 -14.8181 7.03857 -60.0241 -14.7166 7.0564 -50.169 -15.7357 6.76391 
-52.0302 -15.2229 5.8922 -52.0314 -15.5067 6.41442 -51.4843 -15.5123 5.9817 
-53.0919 -15.0305 5.86902 -52.7071 -15.5204 6.52299 -54.2612 -14.9045 5.64597 
-54.036 -15.4961 6.49095 -55.3662 -15.4714 6.60752 -55.7999 -14.9484 5.8401 
-56.8426 -15.5445 6.49467 -57.8983 -15.0365 6.07475 -57.6621 -15.6783 5.79307 
-59.2942 -15.2696 5.71388 -58.737 -15.8184 6.24251 -58.516 -15.5235 5.59029 
-59.4903 -15.8349 6.04012 -51.1065 -15.2003 5.03298 -50.98 -15.5078 5.45777 
-50.4877 -15.5509 4.90715 -52.0497 -14.8548 5.11795 -55.0424 -14.8259 5.14479 
-58.0282 -15.1845 4.97408 -57.7586 -15.6874 5.1155 -59.1124 -15.0108 5.0089 
-58.4062 -15.3584 4.85314 -59.9147 -15.4988 5.49236 -59.9748 -15.1045 5.02047 
-61.1769 -14.8074 4.83625 -60.4785 -15.7988 4.96803 -50.1438 -15.2248 3.96864 
-49.8478 -15.6216 4.30687 -49.4283 -15.4807 3.74777 -51.0405 -14.8784 4.07979 
-58.0573 -15.4277 4.64981 -60.9913 -15.2507 4.52783 -62.0642 -15.0719 3.97585 
-61.5988 -15.8924 3.78901 -48.089 -15.2616 2.80879 -47.9207 -15.6391 3.27196 
-47.3984 -15.4646 2.79205 -49.1645 -15.077 2.99044 -48.6808 -15.5634 3.48045 
[...]
CELL_DATA 4948
SCALARS scalars float
LOOKUP_TABLE default
1034 1034 1034 1034 1034 1034 1034 1034 1034 
1034 1034 1034 1034 1034 1034 1034 1034 1034 
1034 1034 1034 1034 1034 1034 1034 1034 1034 
1034 1034 1034 1034 1034 1034 1034 1034 1034 
1034 1034 1034 1034 1034 1034 1034 1034 1034 
1034 1034 1034 1034 1034 1034 1034 1034 1034 
1034 1034 1034 1034 1034 1034 1034 1034 1034 
1034 1034 1034 1034 1034 1034 1034 1034 1034 
1034 1034 1034 1034 1034 1034 1034 1034 1034 
1034 1034 1034 1034 1034 1034 1034 1034 1034 
1034 1034 1034 1034 1034 1034 1034 1034 1034 
1034 1034 1034 1034 1034 1034 1034 1034 1034 
1034 1034 1034 1034 1034 1034 1034 1034 1034 
1034 1034 1034 1034 1034 1034 1034 1034 1034 
1034 1034 1034 1034 1034 1034 1034 1034 1034 
1034 1034 1034 1034 1034 1034 1034 1034 1034 
1034 1034 1034 1034 1034 1034 1034 1034 1034 
1034 1034 1034 1034 1034 1034 1034 1034 1034 
1034 1034 1034 1034 1034 1034 1034 1034 1034 
1034 1034 1034 1034 1034 1034 1034 1034 1034 
1034 1034 1034 1034 1034 1034 1034 1034 1034 
1034 1034 1034 1034 1034 1034 1034 1034 1034 
1034 1034 1034 1034 1034 1034 1034 1034 1034 
1034 1034 1034 1034 1034 1034 1034 1034 1034 
1034 1034 1034 1034 1034 1034 1034 1034 1034 
1034 1034 1034 1034 1034 1034 1034 1034 1034 
1034 1034 1034 1034 1034 1034 1034 1034 1034 
1034 1034 1034 1034 1034 1034 1034 1034 1034 
1034 1034 1034 1034 1034 1034 1034 1034 1034 
1034 1034 1034 1034 1034 1034 1034 1034 1034 
1034 1034 1034 1034 1034 1034 1034 1034 1034 
1034 1034 1034 1034 1034 1034 1034 1034 1034 
1034 1034 1034 1034 1034 1034 1034 1034 1034 
1034 1034 1034 1034 1034 1034 1034 1034 1034 
1034 1034 1034 1034 1034 1034 1034 1034 1034 
1034 1034 1034 1034 1034 1034 1034 1034 1034 
1034 1034 1034 1034 1034 1034 1034 1034 1034 
1034 1034 1034 1034 1034 1034 1034 1034 1034 
1034 1034 1034 1034 1034 1034 1034 1034 1034 
1034 1034 1034 1034 1034 1034 1034 1034 1034 
1034 1034 1034 1034 1034 1034 1034 1034 1034 
1034 1034 1034 1034 1034 1034 1034 1034 1034 
1034 1034 1034 1034 1034 1034 1034 1034 1034 
1034 1034 1034 1034 1034 1034 1034 1034 1034 
1034 1034 1034 1034 1034 1034 1034 1034 1034 
1034 1034 1034 1034 1034 1034 1034 1034 1034 
1034 1034 1034 1034 1034 1034 1034 1034 1034 
1034 1034 1034 1034 1034 1034 1034 1034 1034 
1034 1034 1034 1034 1034 1034 1034 1034 1034 
1034 1034 1034 1034 1034 1034 1034 1034 1034 
1034 1034 1034 1034 1034 1034 1034 1034 1034 
1034 1034 1034 1034 1034 1034 1034 1034 1034 
1034 1034 1034 1034 1034 1034 1034 1034 1034 
1034 1034 1034 1034 1034 1034 1034 1034 1034 
1034 1034 1034 1034 1034 1034 1034 1034 1034 
1034 1034 1034 1034 1034 1034 1034 1034 1034 
1034 1034 1034 1034 1034 1034 1034 1034 1034 
1034 1034 1034 1034 1034 1034 1034 1034 1034 
1034 1034 1034 1034 1034 1034 1034 1034 1034 
1034 1034 1034 1034 1034 1034 1034 1034 1034 
1034 1034 1034 1034 1034 1034 1034 1034 1034 
1034 1034 1034 1034 1034 1034 1034 1034 1034 
1034 1034 1034 1034 1034 1034 1034 1034 1034 
1034 1034 1034 1034 1034 1034 1034 1034 1034 
1034 1034 1034 1034 1034 1034 1034 1034 1034 
1034 1034 1034 1034 1034 1034 1034 1034 1034 
1034 1034 1034 1034 1034 1034 1034 1034 1034 
1034 1034 1034 1034 1034 1034 1034 1034 1034 
1034 1034 1034 1034 1034 1034 1034 1034 1034 
1034 1034 1034 1034 1034 1034 1034 1034 1034 
1034 1034 1034 1034 1034 1034 1034 1034 1034 
1034 1034 1034 1034 1034 1034 1034 1034 1034 
1034 1034 1034 1034 1034 1034 1034 1034 1034 
1034 1034 1034 1034 1034 1034 1034 1034 1034 
1034 1034 1034 1034 1034 1034 1034 1034 1034 
1034 1034 1034 1034 1034 1034 1034 1034 1034 
1034 1034 1034 1034 1034 1034 1034 1034 1034 
1034 1034 1034 1034 1034 1034 1034 1034 1034 
1034 1034 1034 1034 1034 1034 1034 1034 1034 
1034 1034 1034 1034 1034 1034 1034 1034 1034 
1034 1034 1034 1034 1034 1034 1034 1034 1034 
1034 1034 1034 1034 1034 1034 1034 1034 1034 
1034 1034 1034 1034 1034 1034 1034 1034 1034 
1034 1034 1034 1034 1034 1034 1034 1034 1034 
1034 1034 1034 1034 1034 1034 1034 1034 1034 
1034 1034 1034 1034 1034 1034 1034 1034 1034 
1034 1034 1034 1034 1034 1034 1034 1034 1034 
1034 1034 1034 1034 1034 1034 1034 1034 1034 
1034 1034 1034 1034 1034 1034 1034 1034 1034 
1034 1034 1034 1034 1034 1034 1034 1034 1034 
1034 1034 1034 1034 1034 1034 1034 1034 1034 
1034 1034 1034 1034 1034 1034 1034 1034 1034 
1034 1034 1034 1034 1034 1034 1034 1034 1034 
1034 1034 1034 1034 1034 1034 1034 1034 1034 
1034 1034 1034 1034 1034 1034 1034 1034 1034 
1034 1034 1034 1034 1034 1034 1034 1034 1034 
1034 1034 1034 1034 1034 1034 1034 1034 1034 
1034 1034 1034 1034 1034 1034 1034 1034 1034 
1034 1034 1034 1034 1034 1034 1034 1034 1034 
1034 1034 1034 1034 1034 1034 1034 1034 1034 
1034 1034 1034 1034 1034 1034 1034 1034 1034 
1034 1034 1034 1034 1034 1034 1034 1034 1034 
1034 1034 1034 1034 1034 1034 1034 1034 1034 
1034 1034 1034 1034 1034 1034 1034 1034 1034 
1034 1034 1034 1034 1034 1034 1034 1034 1034 
1034 1034 1034 1034 1034 1034 1034 1034 1034 
1034 1034 1034 1034 1034 1034 1034 1034 1034 
1034 1034 1034 1034 1034 1034 1034 1034 1034 
1034 1034 1034 1034 1034 1034 1034 1034 1034 
1034 1034 1034 1034 1034 1034 1034 1034 1034 
1034 1034 1034 1034 1034 1034 1034 1034 1034 
1034 1034 1034 1034 1034 1034 1034 1034 1034 
1034 1034 1034 1034 1034 1034 1034 1034 1034 
1034 1034 1034 1034 1034 1034 1034 1034 1034 
1034 1034 1034 1034 1034 1034 1034 1034 1034 
1034 1034 1034 1034 1034 1034 1034 1034 1034 
1034 1034 1034 1034 1034 1034 1034 1034 1034 
1034 1034 1034 1034 1034 1034 1034 1034 1034 
1034 1034 1034 1034 1034 1034 1034 1034 1034 
1034 1034 1034 1034 1034 1034 1034 1034 1034 
1034 1034 1034 1034 1034 1034 1034 1034 1034 
1034 1034 1034 1034 1034 1034 1034 1034 1034 
1034 1034 1034 1034 1034 1034 1034 1034 1034 
1034 1034 1034 1034 1034 1034 1034 1034 1034 
1034 1034 1034 1034 1034 1034 1034 1034 1034 
1034 1034 1034 1034 1034 1034 1034 1034 1034 
1034 1034 1034 1034 1034 1034 1034 1034 1034 
1034 1034 1034 1034 1034 1034 1034 1034 1034 
1034 1034 1034 1034 1034 1034 1034 1034 1034 
1034 1034 1034 1034 1034 1034 1034 1034 1034 
1034 1034 1034 1034 1034 1034 1034 1034 1034 
1034 1034 1034 1034 1034 1034 1034 1034 1034 
1034 1034 1034 1034 1034 1034 1034 1034 1034 
1034 1034 1034 1034 1034 1034 1034 1034 1034 
1034 1034 1034 1034 1034 1034 1034 1034 1034 
1034 1034 1034 1034 1034 1034 1034 1034 1034 
1034 1034 1034 1034 1034 1034 1034 1034 1034 
1034 1034 1034 1034 1034 1034 1034 1034 1034 
1034 1034 1034 1034 1034 1034 1034 1034 1034 
1034 1034 1034 1034 1034 1034 1034 1034 1034 
1034 1034 1034 1034 1034 1034 1034 1034 1034 
1034 1034 1034 1034 1034 1034 1034 1034 1034 
1034 1034 1034 1034 1034 1034 1034 1034 1034 
1034 1034 1034 1034 1034 1034 1034 1034 1034 
1034 1034 1034 1034 1034 1034 1034 1034 1034 
1034 1034 1034 1034 1034 1034 1034 1034 1034 
1034 1034 1034 1034 1034 1034 1034 1034 1034 
1034 1034 1034 1034 1034 1034 1034 1034 1034 
1034 1034 1034 1034 1034 1034 1034 1034 1034 
1034 1034 1034 1034 1034 1034 1034 1034 1034 
1034 1034 1034 1034 1034 1034 1034 1034 1034 
1034 1034 1034 1034 1034 1034 1034 1034 1034 
1034 1034 1034 1034 1034 1034 1034 1034 1034 
1034 1034 1034 1034 1034 1034 1034 1034 1034 
1034 1034 1034 1034 1034 1034 1034 1034 1034 
1034 1034 1034 1034 1034 1034 1034 1034 1034 
1034 1034 1034 1034 1034 1034 1034 1034 1034 
1034 1034 1034 1034 1034 1034 1034 1034 1034 
1034 1034 1034 1034 1034 1034 1034 1034 1034 
1034 1034 1034 1034 1034 1034 1034 1034 1034 
1034 1034 1034 1034 1034 1034 1034 1034 1034 
1034 1034 1034 1034 1034 1034 1034 1034 1034 
1034 1034 1034 1034 1034 1034 1034 1034 1034 
1034 1034 1034 1034 1034 1034 1034 1034 1034 
1034 1034 1034 1034 1034 1034 1034 1034 1034 
1034 1034 1034 1034 1034 1034 1034 1034 1034 
1034 1034 1034 1034 1034 1034 1034 1034 1034 
1034 1034 1034 1034 1034 1034 1034 1034 1034 
1034 1034 1034 1034 1034 1034 1034 1034 1034 
1034 1034 1034 1034 1034 1034 1034 1034 1034 
1034 1034 1034 1034 1034 1034 1034 1034 1034 
1034 1034 1034 1034 1034 1034 1034 1034 1034 
1034 1034 1034 1034 1034 1034 1034 1034 1034 
1034 1034 1034 1034 1034 1034 1034 1034 1034 
1034 1034 1034 1034 1034 1034 1034 1034 1034 
1034 1034 1034 1034 1034 1034 1034 1034 1034 
1034 1034 1034 1034 1034 1034 1034 1034 1034 
1034 1034 1034 1034 1034 1034 1034 1034 1034 
1034 1034 1034 1034 1034 1034 1034 1034 1034 
1034 1034 1034 1034 1034 1034 1034 1034 1034 
1034 1034 1034 1034 1034 1034 1034 1034 1034 
1034 1034 1034 1034 1034 1034 1034 1034 1034 
1034 1034 1034 1034 1034 1034 1034 1034 1034 
1034 1034 1034 1034 1034 1034 1034 1034 1034 
1034 1034 1034 1034 1034 1034 1034 1034 1034 
1034 1034 1034 1034 1034 1034 1034 1034 1034 
1034 1034 1034 1034 1034 1034 1034 1034 1034 
1034 1034 1034 1034 1034 1034 1034 1034 1034 
1034 1034 1034 1034 1034 1034 1034 1034 1034 
1034 1034 1034 1034 1034 1034 1034 1034 1034 
1034 1034 1034 1034 1034 1034 1034 1034 1034 
1034 1034 1034 1034 1034 1034 1034 1034 1034 
1034 1034 1034 1034 1034 1034 1034 1034 1034 
1034 1034 1034 1034 1034 1034 1034 1034 1034 
1034 1034 1034 1034 1034 1034 1034 1034 1034 
1034 1034 1034 1034 1034 1034 1034 1034 1034 
1034 1034 1034 1034 1034 1034 1034 1034 1034 
1034 1034 1034 1034 1034 1034 1034 1034 1034 
1034 1034 1034 1034 1034 1034 1034 1034 1034 
1034 1034 1034 1034 1034 1034 1034 1034 1034 
1034 1034 1034 1034 1034 1034 1034 1034 1034 
1034 1034 1034 1034 1034 1034 1034 1034 1034 
1034 1034 1034 1034 1034 1034 1034 1034 1034 
1034 1034 1034 1034 1034 1034 1034 1034 1034 
1034 1034 1034 1034 1034 1034 1034 1034 1034 
1034 1034 1034 1034 1034 1034 1034 1034 1034 
1034 1034 1034 1034 1034 1034 1034 1034 1034 
1034 1034 1034 1034 1034 1034 1034 1034 1034 
1034 1034 1034 1034 1034 1034 1034 1034 1034 
1034 1034 1034 1034 1034 1034 1034 1034 1034 
1034 1034 1034 1034 1034 1034 1034 1034 1034 
1034 1034 1034 1034 1034 1034 1034 1034 1034 
1034 1034 1034 1034 1034 1034 1034 1034 1034 
1034 1034 1034 1034 1034 1034 1034 1034 1034 
1034 1034 1034 1034 1034 1034 1034 1034 1034 
1034 1034 1034 1034 1034 1034 1034 1034 1034 
1034 1034 1034 1034 1034 1034 1034 1034 1034 
1034 1034 1034 1034 1034 1034 1034 1034 1034 
1034 1034 1034 1034 1034 1034 1034 1034 1034 
1034 1034 1034 1034 1034 1034 1034 1034 1034 
1034 1034 1034 1034 1034 1034 1034 1034 1034 
1034 1034 1034 1034 1034 1034 1034 1034 1034 
1034 1034 1034 1034 1034 1034 1034 1034 1034 
1034 1034 1034 1034 1034 1034 1034 1034 1034 
1034 1034 1034 1034 1034 1034 1034 1034 1034 
1034 1034 1034 1034 1034 1034 1034 1034 1034 
1034 1034 1034 1034 1034 1034 1034 1034 1034 
1034 1034 1034 1034 1034 1034 1034 1034 1034 
1034 1034 1034 1034 1034 1034 1034 1034 1034 
1034 1034 1034 1034 1034 1034 1034 1034 1034 
1034 1034 1034 1034 1034 1034 1034 1034 1034 
1034 1034 1034 1034 1034 1034 1034 1034 1034 
1034 1034 1034 1034 1034 1034 1034 1034 1034 
1034 1034 1034 1034 1034 1034 1034 1034 1034 
1034 1034 1034 1034 1034 1034 1034 1034 1034 
1034 1034 1034 1034 1034 1034 1034 1034 1034 
1034 1034 1034 1034 1034 1034 1034 1034 1034 
1034 1034 1034 1034 1034 1034 1034 1034 1034 
1034 1034 1034 1034 1034 1034 1034 1034 1034 
1034 1034 1034 1034 1034 1034 1034 1034 1034 
1034 1034 1034 1034 1034 1034 1034 1034 1034 
1034 1034 1034 1034 1034 1034 1034 1034 1034 
1034 1034 1034 1034 1034 1034 1034 1034 1034 
1034 1034 1034 1034 1034 1034 1034 1034 1034 
1034 1034 1034 1034 1034 1034 1034 1034 1034 
1034 1034 1034 1034 1034 1034 1034 1034 1034 
1034 1034 1034 1034 1034 1034 1034 1034 1034 
1034 1034 1034 1034 1034 1034 1034 1034 1034 
1034 1034 1034 1034 1034 1034 1034 1034 1034 
1034 1034 1034 1034 1034 1034 1034 1034 1034 
1034 1034 1034 1034 1034 1034 1034 1034 1034 
1034 1034 1034 1034 1034 1034 1034 1034 1034 
1034 1034 1034 1034 1034 1034 1034 1034 1034 
1034 1034 1034 1034 1034 1034 1034 1034 1034 
1034 1034 1034 1034 1034 1034 1034 1034 1034 
1034 1034 1034 1034 1034 1034 1034 1034 1034 
1034 1034 1034 1034 1034 1034 1034 1034 1034 
1034 1034 1034 1034 1034 1034 1034 1034 1034 
1034 1034 1034 1034 1034 1034 1034 1034 1034 
1034 1034 1034 1034 1034 1034 1034 1034 1034 
1034 1034 1034 1034 1034 1034 1034 1034 1034 
1034 1034 1034 1034 1034 1034 1034 1034 1034 
1034 1034 1034 1034 1034 1034 1034 1034 1034 
1034 1034 1034 1034 1034 1034 1034 1034 1034 
1034 1034 1034 1034 1034 1034 1034 1034 1034 
1034 1034 1034 1034 1034 1034 1034 1034 1034 
1034 1034 1034 1034 1034 1034 1034 1034 1034 
1034 1034 1034 1034 1034 1034 1034 1034 1034 
1034 1034 1034 1034 1034 1034 1034 1034 1034 
1034 1034 1034 1034 1034 1034 1034 1034 1034 
1034 1034 1034 1034 1034 1034 1034 1034 1034 
1034 1034 1034 1034 1034 1034 1034 1034 1034 
1034 1034 1034 1034 1034 1034 1034 1034 1034 
1034 1034 1034 1034 1034 1034 1034 1034 1034 
1034 1034 1034 1034 1034 1034 1034 1034 1034 
1034 1034 1034 1034 1034 1034 1034 1034 1034 
1034 1034 1034 1034 1034 1034 1034 1034 1034 
1034 1034 1034 1034 1034 1034 1034 1034 1034 
1034 1034 1034 1034 1034 1034 1034 1034 1034 
1034 1034 1034 1034 1034 1034 1034 1034 1034 
1034 1034 1034 1034 1034 1034 1034 1034 1034 
1034 1034 1034 1034 1034 1034 1034 1034 1034 
1034 1034 1034 1034 1034 1034 1034 1034 1034 
1034 1034 1034 1034 1034 1034 1034 1034 1034 
1034 1034 1034 1034 1034 1034 1034 1034 1034 
1034 1034 1034 1034 1034 1034 1034 1034 1034 
1034 1034 1034 1034 1034 1034 1034 1034 1034 
1034 1034 1034 1034 1034 1034 1034 1034 1034 
1034 1034 1034 1034 1034 1034 1034 1034 1034 
1034 1034 1034 1034 1034 1034 1034 1034 1034 
1034 1034 1034 1034 1034 1034 1034 1034 1034 
1034 1034 1034 1034 1034 1034 1034 1034 1034 
1034 1034 1034 1034 1034 1034 1034 1034 1034 
1034 1034 1034 1034 1034 1034 1034 1034 1034 
1034 1034 1034 1034 1034 1034 1034 1034 1034 
1034 1034 1034 1034 1034 1034 1034 1034 1034 
1034 1034 1034 1034 1034 1034 1034 1034 1034 
1034 1034 1034 1034 1034 1034 1034 1034 1034 
1034 1034 1034 1034 1034 1034 1034 1034 1034 
1034 1034 1034 1034 1034 1034 1034 1034 1034 
1034 1034 1034 1034 1034 1034 1034 1034 1034 
1034 1034 1034 1034 1034 1034 1034 1034 1034 
1034 1034 1034 1034 1034 1034 1034 1034 1034 
1034 1034 1034 1034 1034 1034 1034 1034 1034 
1034 1034 1034 1034 1034 1034 1034 1034 1034 
1034 1034 1034 1034 1034 1034 1034 1034 1034 
1034 1034 1034 1034 1034 1034 1034 1034 1034 
1034 1034 1034 1034 1034 1034 1034 1034 1034 
1034 1034 1034 1034 1034 1034 1034 1034 1034 
1034 1034 1034 1034 1034 1034 1034 1034 1034 
1034 1034 1034 1034 1034 1034 1034 1034 1034 
1034 1034 1034 1034 1034 1034 1034 1034 1034 
1034 1034 1034 1034 1034 1034 1034 1034 1034 
1034 1034 1034 1034 1034 1034 1034 1034 1034 
1034 1034 1034 1034 1034 1034 1034 1034 1034 
1034 1034 1034 1034 1034 1034 1034 1034 1034 
1034 1034 1034 1034 1034 1034 1034 1034 1034 
1034 1034 1034 1034 1034 1034 1034 1034 1034 
1034 1034 1034 1034 1034 1034 1034 1034 1034 
1034 1034 1034 1034 1034 1034 1034 1034 1034 
1034 1034 1034 1034 1034 1034 1034 1034 1034 
1034 1034 1034 1034 1034 1034 1034 1034 1034 
1034 1034 1034 1034 1034 1034 1034 1034 1034 
1034 1034 1034 1034 1034 1034 1034 1034 1034 
1034 1034 1034 1034 1034 1034 1034 1034 1034 
1034 1034 1034 1034 1034 1034 1034 1034 1034 
1034 1034 1034 1034 1034 1034 1034 1034 1034 
1034 1034 1034 1034 1034 1034 1034 1034 1034 
1034 1034 1034 1034 1034 1034 1034 1034 1034 
1034 1034 1034 1034 1034 1034 1034 1034 1034 
1034 1034 1034 1034 1034 1034 1034 1034 1034 
1034 1034 1034 1034 1034 1034 1034 1034 1034 
1034 1034 1034 1034 1034 1034 1034 1034 1034 
1034 1034 1034 1034 1034 1034 1034 1034 1034 
1034 1034 1034 1034 1034 1034 1034 1034 1034 
1034 1034 1034 1034 1034 1034 1034 1034 1034 
1034 1034 1034 1034 1034 1034 1034 1034 1034 
1034 1034 1034 1034 1034 1034 1034 1034 1034 
1034 1034 1034 1034 1034 1034 1034 1034 1034 
1034 1034 1034 1034 1034 1034 1034 1034 1034 
1034 1034 1034 1034 1034 1034 1034 1034 1034 
1034 1034 1034 1034 1034 1034 1034 1034 1034 
1034 1034 1034 1034 1034 1034 1034 1034 1034 
1034 1034 1034 1034 1034 1034 1034 1034 1034 
1034 1034 1034 1034 1034 1034 1034 1034 1034 
1034 1034 1034 1034 1034 1034 1034 1034 1034 
1034 1034 1034 1034 1034 1034 1034 1034 1034 
1034 1034 1034 1034 1034 1034 1034 1034 1034 
1034 1034 1034 1034 1034 1034 1034 1034 1034 
1034 1034 1034 1034 1034 1034 1034 1034 1034 
1034 1034 1034 1034 1034 1034 1034 1034 1034 
1034 1034 1034 1034 1034 1034 1034 1034 1034 
1034 1034 1034 1034 1034 1034 1034 1034 1034 
1034 1034 1034 1034 1034 1034 1034 1034 1034 
1034 1034 1034 1034 1034 1034 1034 1034 1034 
1034 1034 1034 1034 1034 1034 1034 1034 1034 
1034 1034 1034 1034 1034 1034 1034 1034 1034 
1034 1034 1034 1034 1034 1034 1034 1034 1034 
1034 1034 1034 1034 1034 1034 1034 1034 1034 
1034 1034 1034 1034 1034 1034 1034 1034 1034 
1034 1034 1034 1034 1034 1034 1034 1034 1034 
1034 1034 1034 1034 1034 1034 1034 1034 1034 
1034 1034 1034 1034 1034 1034 1034 1034 1034 
1034 1034 1034 1034 1034 1034 1034 1034 1034 
1034 1034 1034 1034 1034 1034 1034 1034 1034 
1034 1034 1034 1034 1034 1034 1034 1034 1034 
1034 1034 1034 1034 1034 1034 1034 1034 1034 
1034 1034 1034 1034 1034 1034 1034 1034 1034 
1034 1034 1034 1034 1034 1034 1034 1034 1034 
1034 1034 1034 1034 1034 1034 1034 1034 1034 
1034 1034 1034 1034 1034 1034 1034 1034 1034 
1034 1034 1034 1034 1034 1034 1034 1034 1034 
1034 1034 1034 1034 1034 1034 1034 1034 1034 
1034 1034 1034 1034 1034 1034 1034 1034 1034 
1034 1034 1034 1034 1034 1034 1034 1034 1034 
1034 1034 1034 1034 1034 1034 1034 1034 1034 
1034 1034 1034 1034 1034 1034 1034 1034 1034 
1034 1034 1034 1034 1034 1034 1034 1034 1034 
1034 1034 1034 1034 1034 1034 1034 1034 1034 
1034 1034 1034 1034 1034 1034 1034 1034 1034 
1034 1034 1034 1034 1034 1034 1034 1034 1034 
1034 1034 1034 1034 1034 1034 1034 1034 1034 
1034 1034 1034 1034 1034 1034 1034 1034 1034 
1034 1034 1034 1034 1034 1034 1034 1034 1034 
1034 1034 1034 1034 1034 1034 1034 1034 1034 
1034 1034 1034 1034 1034 1034 1034 1034 1034 
1034 1034 1034 1034 1034 1034 1034 1034 1034 
1034 1034 1034 1034 1034 1034 1034 1034 1034 
1034 1034 1034 1034 1034 1034 1034 1034 1034 
1034 1034 1034 1034 1034 1034 1034 1034 1034 
1034 1034 1034 1034 1034 1034 1034 1034 1034 
1034 1034 1034 1034 1034 1034 1034 1034 1034 
1034 1034 1034 1034 1034 1034 1034 1034 1034 
1034 1034 1034 1034 1034 1034 1034 1034 1034 
1034 1034 1034 1034 1034 1034 1034 1034 1034 
1034 1034 1034 1034 1034 1034 1034 1034 1034 
1034 1034 1034 1034 1034 1034 1034 1034 1034 
1034 1034 1034 1034 1034 1034 1034 1034 1034 
1034 1034 1034 1034 1034 1034 1034 1034 1034 
1034 1034 1034 1034 1034 1034 1034 1034 1034 
1034 1034 1034 1034 1034 1034 1034 1034 1034 
1034 1034 1034 1034 1034 1034 1034 1034 1034 
1034 1034 1034 1034 1034 1034 1034 1034 1034 
1034 1034 1034 1034 1034 1034 1034 1034 1034 
1034 1034 1034 1034 1034 1034 1034 1034 1034 
1034 1034 1034 1034 1034 1034 1034 1034 1034 
1034 1034 1034 1034 1034 1034 1034 1034 1034 
1034 1034 1034 1034 1034 1034 1034 1034 1034 
1034 1034 1034 1034 1034 1034 1034 1034 1034 
1034 1034 1034 1034 1034 1034 1034 1034 1034 
1034 1034 1034 1034 1034 1034 1034 1034 1034 
1034 1034 1034 1034 1034 1034 1034 1034 1034 
1034 1034 1034 1034 1034 1034 1034 1034 1034 
1034 1034 1034 1034 1034 1034 1034 1034 1034 
1034 1034 1034 1034 1034 1034 1034 1034 1034 
1034 1034 1034 1034 1034 1034 1034 1034 1034 
1034 1034 1034 1034 1034 1034 1034 1034 1034 
1034 1034 1034 1034 1034 1034 1034 1034 1034 
1034 1034 1034 1034 1034 1034 1034 1034 1034 
1034 1034 1034 1034 1034 1034 1034 1034 1034 
1034 1034 1034 1034 1034 1034 1034 1034 1034 
1034 1034 1034 1034 1034 1034 1034 1034 1034 
1034 1034 1034 1034 1034 1034 1034 1034 1034 
1034 1034 1034 1034 1034 1034 1034 1034 1034 
1034 1034 1034 1034 1034 1034 1034 1034 1034 
1034 1034 1034 1034 1034 1034 1034 1034 1034 
1034 1034 1034 1034 1034 1034 1034 1034 1034 
1034 1034 1034 1034 1034 1034 1034 1034 1034 
1034 1034 1034 1034 1034 1034 1034 1034 1034 
1034 1034 1034 1034 1034 1034 1034 1034 1034 
1034 1034 1034 1034 1034 1034 1034 1034 1034 
1034 1034 1034 1034 1034 1034 1034 1034 1034 
1034 1034 1034 1034 1034 1034 1034 1034 1034 