# vtk DataFile Version 4.0
vtk output
ASCII
DATASET POLYDATA
POINTS 4948 float
-7.19602 50.878 2.74818 -6.90864 50.4597 3.35816 -6.40446 50.5824 2.84309 
-8.23648 50.8276 2.72445 -7.73665 50.5095 3.45133 -8.52197 50.4613 3.18104 
-6.31555 50.8045 2.09492 -5.80849 50.4213 2.41648 -5.71754 50.4328 1.7933 
-6.97908 51.0676 2.02735 -7.72925 50.946 1.89751 -8.93347 50.5983 2.57237 
-8.7436 50.7614 2.01494 -9.32128 50.4624 2.11656 -6.15241 50.6087 1.36642 
-6.55169 50.4702 0.778298 -6.86532 50.8333 1.3071 -7.6074 50.3803 0.87284 
-8.33864 50.5473 1.36056 -9.12107 50.446 1.59217 -7.06821 50.3597 0.506816 
-6.11527 49.6419 11.019 -5.81161 49.2889 11.2429 -5.72804 49.3799 10.8139 
-6.29348 49.293 11.1061 -6.22731 49.3417 10.8409 -5.36381 49.7402 5.93019 
-4.96878 49.4308 6.34414 -4.76958 49.4374 5.85497 -6.19482 49.8047 5.76809 
-5.94008 49.3231 6.51161 -6.60971 49.3882 6.12832 -5.14706 49.6011 5.4291 
-5.24374 49.5667 4.84734 -5.87974 49.8982 4.95082 -6.84715 49.5975 5.60911 
-7.03315 49.8388 4.9083 -7.39993 49.4403 5.19246 -5.35521 49.7804 4.04338 
-4.87898 49.386 4.39107 -4.59746 49.4551 3.6358 -6.02731 50.0022 4.05267 
-6.8798 50.1289 4.03187 -7.97026 49.4456 4.57764 -8.18586 50.0008 3.96587 
-9.25519 49.814 3.73397 -8.72471 49.4438 4.13973 -9.34687 49.3152 3.77436 
-4.90539 49.831 2.98579 -4.29989 49.5453 2.85823 -5.94031 50.1443 3.22267 
-9.2132 50.2126 2.94314 -9.94891 49.5276 3.5918 -10.184 49.9568 3.01741 
-11.2191 49.9178 3.0012 -10.9144 49.3117 3.52592 -11.8134 49.8253 2.72599 
-12.0216 49.4624 3.30482 -12.5394 49.4271 3.0374 -4.2023 49.8523 1.88604 
-3.80477 49.4259 2.39814 -3.41102 49.5635 1.81727 -5.25632 50.1058 2.03682 
-9.75645 50.1703 1.89927 -10.8417 49.9364 1.98885 -11.5019 49.4498 1.96432 
-12.2415 49.221 2.53125 -3.30102 49.8512 0.997212 -2.90926 49.3543 1.52666 
-2.65153 49.3897 0.855231 -4.13478 50.0249 0.772598 -4.9947 50.0161 0.946109 
-5.87086 50.1977 0.978198 -8.11286 50.1506 0.902035 -8.91545 50.0542 1.03867 
-9.93403 49.8495 1.04697 -10.6428 49.3802 0.842306 -11.089 49.4162 1.35141 
-2.98179 49.7908 0.187755 -2.58952 49.3543 -0.0145345 -3.7196 49.9211 0.0611586 
-4.73503 49.8921 0.0508374 -5.75584 49.8784 0.0753201 -6.6941 49.9517 0.0739455 
-7.50949 49.5101 -0.101546 -8.24271 49.4672 0.424813 -9.17965 49.5403 0.584129 
-9.89871 49.2945 0.402147 -3.27157 49.5495 -0.504367 -4.25435 49.5385 -0.589448 
-5.30812 49.5159 -0.580752 -6.30505 49.5003 -0.594303 -7.03507 49.3685 -0.600537 
-5.20594 49.0368 11.0084 -5.29296 48.608 11.3874 -4.66427 48.2978 10.9873 
-5.93889 48.5832 11.3091 -6.30215 48.7696 10.9401 -3.2295 48.7381 9.73037 
-2.80354 48.4545 10.2553 -2.49611 48.5426 9.66074 -3.37574 48.4154 10.1727 
-5.08377 48.8479 10.0035 -4.57493 48.4069 10.0021 -5.91788 48.7904 10.5378 
-5.48111 48.3434 9.86796 -2.99804 48.9263 8.85145 -2.25772 48.6106 8.8908 
-4.16212 48.2465 9.6065 -4.18037 48.916 9.10974 -5.05041 48.8789 8.76897 
-5.26813 48.4977 8.90791 -2.29187 48.7841 8.07092 -1.78329 48.4624 8.40706 
-1.66407 48.5073 7.9748 -3.14391 49.0215 7.81998 -4.01118 49.0717 7.961 
-5.11597 48.934 7.88994 -5.3864 48.5897 8.12862 -1.87743 48.3957 7.48358 
-2.55974 48.4025 6.82756 -2.95797 48.8117 7.09191 -3.83867 49.0431 7.13936 
-4.91488 49.1551 6.99211 -5.71034 48.3972 7.42236 -5.81848 48.9315 7.10764 
-6.36589 48.4419 6.72279 -3.21179 48.548 6.38719 -3.47396 48.4764 5.62986 
-4.10698 48.989 6.14825 -7.3635 49.0916 5.86187 -6.92124 48.7335 6.42405 
-8.23482 48.8236 5.73846 -7.71386 48.4715 6.21179 -8.28443 48.3751 5.94366 
-3.93443 48.8146 4.97056 -3.37675 48.5181 4.83664 -4.66814 49.2144 5.11892 
-8.03719 49.0985 5.08582 -8.87516 48.4134 5.57434 -8.98414 48.8103 5.04675 
-9.82459 48.694 4.92048 -9.76987 48.3974 5.199 -10.2132 48.5739 5.00885 
-3.38058 48.7764 4.004 -2.86529 48.4145 4.34532 -2.56511 48.4689 3.57355 
-4.23601 49.0897 4.17846 -8.60239 48.7936 4.11124 -8.93615 49.1234 3.86891 
-9.16286 48.3659 4.47735 -9.84971 48.2444 4.76303 -10.9452 48.2752 4.19738 
-10.6421 48.4269 3.78396 -11.1498 48.7586 3.95901 -11.5127 48.317 4.23762 
-3.02041 48.8039 3.10291 -2.46669 48.4877 2.65461 -3.80323 49.1414 3.16537 
-9.0986 48.7722 3.26341 -8.7101 48.1894 3.15514 -10.0077 48.6819 3.34404 
-9.58112 48.3317 2.77836 -12.0176 48.6695 3.69441 -12.9893 48.9605 2.90853 
-12.8693 48.7668 3.27109 -13.3109 48.2857 3.0066 -3.12078 49.0442 2.29494 
-2.45467 48.6796 1.65988 -9.11494 48.2919 2.6699 -11.6685 48.7103 1.98478 
-12.1721 48.2347 2.3485 -12.9633 48.4142 2.66978 -2.25958 48.789 0.723223 
-11.0375 49.0212 0.926798 -11.4388 48.5434 1.29888 -2.11933 48.9081 -0.137107 
-1.8788 48.3663 0.529887 -1.66417 48.3781 -0.151896 -7.9883 48.9339 -0.090883 
-8.59618 48.1411 0.100044 -9.14734 48.6651 0.388382 -9.83487 48.7492 -0.00172075 
-9.44364 48.1853 -0.00051979 -10.3791 48.7131 0.119261 -11.1373 48.3243 0.541457 
-1.96489 48.8084 -0.863462 -1.63972 48.2076 -1.14949 -2.6928 49.0512 -0.910893 
-3.73938 49.0415 -1.09014 -4.76619 49.0108 -1.08119 -5.77832 49.0082 -1.0757 
-6.71798 48.9358 -1.07784 -7.44299 48.7559 -0.922634 -7.96779 48.4808 -0.600689 
-9.94349 48.1479 -0.294489 -2.27542 48.5512 -1.5358 -3.21956 48.5391 -1.58852 
-4.2347 48.4919 -1.56617 -5.27928 48.34 -1.5478 -6.29912 48.3506 -1.43964 
-7.22467 48.2026 -1.37875 -3.14921 47.8115 11.7871 -2.90627 47.4385 12.3753 
-2.40868 47.575 11.868 -4.12052 47.8114 11.814 -3.68733 47.4554 12.4828 
-4.44407 47.3841 12.2473 -2.11414 47.8243 11.0609 -1.94913 47.5157 11.5174 
-1.46321 47.4997 10.9851 -3.02206 48.1214 10.7674 -3.92284 47.9694 11.0855 
-5.10712 47.7857 11.5582 -5.80131 48.0752 10.8131 -5.39798 47.4594 11.0042 
-7.08273 47.6017 10.9623 -7.06575 47.4453 11.1623 -6.70725 47.3465 11.1705 
-7.29182 47.2073 10.8869 -1.2931 47.8358 10.0443 -0.959481 47.5176 10.4035 
-0.552929 47.4673 9.73919 -2.16461 48.1542 10.207 -3.93506 47.9813 10.2762 
-4.78432 47.6677 10.4465 -4.41773 47.4244 9.683 -5.08608 47.9777 10.0777 
-6.02765 47.5326 10.26 -5.63157 47.2795 10.0729 -5.99553 47.5939 10.0175 
-7.01521 47.3254 10.599 -6.33979 47.2969 9.8797 -0.941504 47.8585 9.09149 
-0.4268 47.3607 8.62045 -1.70694 48.2031 9.17776 -4.51559 47.5378 8.8541 
-4.95338 48.089 9.10889 -5.84413 47.2263 9.73867 -1.18232 48.0275 8.19059 
-0.661737 47.2368 7.74313 -5.1046 47.9755 8.14887 -4.71638 47.1385 8.21442 
-1.22074 47.7058 7.39255 -1.98184 47.9837 6.83768 -1.42207 47.3229 6.61539 
-5.26064 47.6443 7.47639 -5.84545 47.9686 6.8851 -5.54992 47.4578 6.8262 
-2.12929 47.8395 5.98768 -1.65444 47.4533 5.76868 -2.77533 48.1827 6.17136 
-6.10756 47.7082 6.19928 -5.79679 47.3563 6.14095 -6.97068 47.7544 6.29242 
-6.31328 47.462 5.87419 -7.86237 47.9355 6.07926 -7.56238 47.1375 6.10956 
-2.0282 47.8301 5.14705 -1.60969 47.3678 4.93959 -2.77425 48.1602 5.15314 
-6.00671 47.4061 5.76988 -8.38549 47.5787 5.69339 -9.35126 47.4773 5.3832 
-10.1202 48.2632 5.00355 -9.72067 47.4863 4.8412 -11.9005 47.753 4.68348 
-11.971 47.521 5.12901 -11.7275 47.2832 4.84454 -12.2516 47.2353 4.78849 
-2.13856 48.0061 4.22908 -1.59007 47.3686 3.95481 -8.7005 47.7733 3.84559 
-9.17751 47.5014 4.32305 -11.2161 47.5995 4.37487 -10.7406 47.6991 3.95082 
-12.216 48.0066 4.04845 -12.5764 47.3394 4.12934 -1.94993 47.9996 3.18171 
-1.58001 47.3372 2.96989 -9.02969 47.2631 3.3523 -9.08932 47.8107 2.75713 
-9.99487 47.9805 2.87052 -9.54973 47.2288 2.87563 -10.3142 47.5052 3.24559 
-12.9578 47.7994 3.46507 -13.3253 47.4781 2.95881 -1.94407 47.9706 2.21925 
-1.58783 47.3243 1.98387 -9.70397 47.7051 2.6677 -11.7478 47.8306 1.90295 
-12.2494 47.2611 2.27823 -12.8849 47.4286 2.60136 -1.93763 48.0572 1.30174 
-1.56612 47.5287 0.91568 -8.9303 47.7996 0.845058 -8.84305 47.4835 0.929859 
-9.00401 47.3747 1.16152 -9.14001 47.6959 0.738955 -11.8744 47.6197 1.40401 
-11.8138 47.8411 0.905583 -12.256 47.0939 1.12924 -1.47703 47.4932 -0.084083 
-8.92545 47.5452 0.653501 -9.07229 47.8195 0.144322 -10.6087 47.8236 -0.0531013 
-11.3163 47.4954 0.194272 -11.9157 47.4239 0.47738 -1.45832 47.3786 -0.931124 
-7.84808 48.0491 -1.16749 -8.41906 47.7116 -0.91111 -9.26569 47.6657 -0.562409 
-10.1156 47.4796 -0.497812 -1.94607 48.0425 -1.93697 -1.51649 47.5346 -1.74603 
-2.70913 48.032 -2.08178 -3.72701 47.9922 -2.05566 -4.67016 47.8936 -2.00499 
-5.41009 47.6621 -1.94737 -6.08603 47.6579 -1.75733 -7.07993 47.4086 -1.6614 
-8.05684 47.3304 -1.41227 -2.03445 47.3986 -2.46144 -3.25778 47.5089 -2.56136 
-4.29053 47.3036 -2.50781 -5.21185 47.2148 -2.29426 -2.23587 46.7377 13.0024 
-1.99027 46.3005 13.4976 -1.69783 46.3473 12.9086 -3.10455 46.9961 12.9119 
-2.71182 46.4889 13.5215 -4.29551 46.9514 12.8669 -3.70545 46.5173 13.5218 
-5.22558 46.7267 12.7445 -4.6715 46.4661 13.4611 -5.41567 46.3937 13.1766 
-2.00221 47.0903 12.0953 -1.37185 46.4357 12.0293 -5.17717 47.1052 11.9716 
-5.84757 46.5023 12.6046 -6.03275 46.8579 11.8948 -6.43017 46.4301 12.1732 
-0.9691 47.0276 10.9479 -1.00075 46.4981 11.4404 -0.485779 46.5165 10.9663 
-5.95469 47.2466 10.7197 -6.92941 46.8495 11.48 -7.48303 46.5452 11.0324 
-0.125929 46.908 10.1289 0.128818 46.384 10.5303 0.406065 46.387 9.87611 
-5.01631 47.006 9.95878 -6.98988 47.018 9.8819 -7.58491 46.6897 10.2162 
0.0666264 46.9692 9.2343 0.397802 46.1765 9.06861 -4.63115 46.705 9.06837 
-5.31706 46.6057 9.43594 -6.12499 46.7226 9.30816 -6.8353 46.7482 9.19876 
-6.51596 46.4332 8.92504 -7.50154 46.4838 9.26696 0.0149843 46.6407 8.56633 
-0.291642 46.5114 7.9983 -4.86796 46.4969 8.50161 -5.26354 46.9446 7.76705 
-6.13524 46.6954 7.72767 -5.58597 46.3546 8.41977 -7.03972 46.3016 8.71176 
-6.40759 46.3307 8.18213 -0.89419 47.0487 7.11672 -0.629269 46.2819 7.19171 
-5.85534 47.077 6.89071 -6.85285 46.5206 7.57096 -6.76119 46.9681 6.82098 
-7.36018 46.4193 6.77632 -1.01998 46.5703 6.6307 -1.3368 46.6087 5.92293 
-6.2318 47.246 6.13197 -7.63492 46.2907 5.91298 -1.45289 46.4775 4.94926 
-8.13954 46.4408 5.56559 -9.05893 46.5141 5.45565 -9.78607 46.546 5.31761 
-9.86919 46.8676 5.06178 -10.3027 46.096 4.85224 -12.0208 47.2252 5.05444 
-1.59463 46.4541 3.9893 -8.88697 47.1016 3.90336 -9.47874 46.7497 4.02654 
[...]
CELL_DATA 9916
SCALARS scalars float
LOOKUP_TABLE default
1026 1026 1026 1026 1026 1026 1026 1026 1026 
1026 1026 1026 1026 1026 1026 1026 1026 1026 
1026 1026 1026 1026 1026 1026 1026 1026 1026 
1026 1026 1026 1026 1026 1026 1026 1026 1026 
1026 1026 1026 1026 1026 1026 1026 1026 1026 
1026 1026 1026 1026 1026 1026 1026 1026 1026 
1026 1026 1026 1026 1026 1026 1026 1026 1026 
1026 1026 1026 1026 1026 1026 1026 1026 1026 
1026 1026 1026 1026 1026 1026 1026 1026 1026 
1026 1026 1026 1026 1026 1026 1026 1026 1026 
1026 1026 1026 1026 1026 1026 1026 1026 1026 
1026 1026 1026 1026 1026 1026 1026 1026 1026 
1026 1026 1026 1026 1026 1026 1026 1026 1026 
1026 1026 1026 1026 1026 1026 1026 1026 1026 
1026 1026 1026 1026 1026 1026 1026 1026 1026 
1026 1026 1026 1026 1026 1026 1026 1026 1026 
1026 1026 1026 1026 1026 1026 1026 1026 1026 
1026 1026 1026 1026 1026 1026 1026 1026 1026 
1026 1026 1026 1026 1026 1026 1026 1026 1026 
1026 1026 1026 1026 1026 1026 1026 1026 1026 
1026 1026 1026 1026 1026 1026 1026 1026 1026 
1026 1026 1026 1026 1026 1026 1026 1026 1026 
1026 1026 1026 1026 1026 1026 1026 1026 1026 
1026 1026 1026 1026 1026 1026 1026 1026 1026 
1026 1026 1026 1026 1026 1026 1026 1026 1026 
1026 1026 1026 1026 1026 1026 1026 1026 1026 
1026 1026 1026 1026 1026 1026 1026 1026 1026 
1026 1026 1026 1026 1026 1026 1026 1026 1026 
1026 1026 1026 1026 1026 1026 1026 1026 1026 
1026 1026 1026 1026 1026 1026 1026 1026 1026 
1026 1026 1026 1026 1026 1026 1026 1026 1026 
1026 1026 1026 1026 1026 1026 1026 1026 1026 
1026 1026 1026 1026 1026 1026 1026 1026 1026 
1026 1026 1026 1026 1026 1026 1026 1026 1026 
1026 1026 1026 1026 1026 1026 1026 1026 1026 
1026 1026 1026 1026 1026 1026 1026 1026 1026 
1026 1026 1026 1026 1026 1026 1026 1026 1026 
1026 1026 1026 1026 1026 1026 1026 1026 1026 
1026 1026 1026 1026 1026 1026 1026 1026 1026 
1026 1026 1026 1026 1026 1026 1026 1026 1026 
1026 1026 1026 1026 1026 1026 1026 1026 1026 
1026 1026 1026 1026 1026 1026 1026 1026 1026 
1026 1026 1026 1026 1026 1026 1026 1026 1026 
1026 1026 1026 1026 1026 1026 1026 1026 1026 
1026 1026 1026 1026 1026 1026 1026 1026 1026 
1026 1026 1026 1026 1026 1026 1026 1026 1026 
1026 1026 1026 1026 1026 1026 1026 1026 1026 
1026 1026 1026 1026 1026 1026 1026 1026 1026 
1026 1026 1026 1026 1026 1026 1026 1026 1026 
1026 1026 1026 1026 1026 1026 1026 1026 1026 
1026 1026 1026 1026 1026 1026 1026 1026 1026 
1026 1026 1026 1026 1026 1026 1026 1026 1026 
1026 1026 1026 1026 1026 1026 1026 1026 1026 
1026 1026 1026 1026 1026 1026 1026 1026 1026 
1026 1026 1026 1026 1026 1026 1026 1026 1026 
1026 1026 1026 1026 1026 1026 1026 1026 1026 
1026 1026 1026 1026 1026 1026 1026 1026 1026 
1026 1026 1026 1026 1026 1026 1026 1026 1026 
1026 1026 1026 1026 1026 1026 1026 1026 1026 
1026 1026 1026 1026 1026 1026 1026 1026 1026 
1026 1026 1026 1026 1026 1026 1026 1026 1026 
1026 1026 1026 1026 1026 1026 1026 1026 1026 
1026 1026 1026 1026 1026 1026 1026 1026 1026 
1026 1026 1026 1026 1026 1026 1026 1026 1026 
1026 1026 1026 1026 1026 1026 1026 1026 1026 
1026 1026 1026 1026 1026 1026 1026 1026 1026 
1026 1026 1026 1026 1026 1026 1026 1026 1026 
1026 1026 1026 1026 1026 1026 1026 1026 1026 
1026 1026 1026 1026 1026 1026 1026 1026 1026 
1026 1026 1026 1026 1026 1026 1026 1026 1026 
1026 1026 1026 1026 1026 1026 1026 1026 1026 
1026 1026 1026 1026 1026 1026 1026 1026 1026 
1026 1026 1026 1026 1026 1026 1026 1026 1026 
1026 1026 1026 1026 1026 1026 1026 1026 1026 
1026 1026 1026 1026 1026 1026 1026 1026 1026 
1026 1026 1026 1026 1026 1026 1026 1026 1026 
1026 1026 1026 1026 1026 1026 1026 1026 1026 
1026 1026 1026 1026 1026 1026 1026 1026 1026 
1026 1026 1026 1026 1026 1026 1026 1026 1026 
1026 1026 1026 1026 1026 1026 1026 1026 1026 
1026 1026 1026 1026 1026 1026 1026 1026 1026 
1026 1026 1026 1026 1026 1026 1026 1026 1026 
1026 1026 1026 1026 1026 1026 1026 1026 1026 
1026 1026 1026 1026 1026 1026 1026 1026 1026 
1026 1026 1026 1026 1026 1026 1026 1026 1026 
1026 1026 1026 1026 1026 1026 1026 1026 1026 
1026 1026 1026 1026 1026 1026 1026 1026 1026 
1026 1026 1026 1026 1026 1026 1026 1026 1026 
1026 1026 1026 1026 1026 1026 1026 1026 1026 
1026 1026 1026 1026 1026 1026 1026 1026 1026 
1026 1026 1026 1026 1026 1026 1026 1026 1026 
1026 1026 1026 1026 1026 1026 1026 1026 1026 
1026 1026 1026 1026 1026 1026 1026 1026 1026 
1026 1026 1026 1026 1026 1026 1026 1026 1026 
1026 1026 1026 1026 1026 1026 1026 1026 1026 
1026 1026 1026 1026 1026 1026 1026 1026 1026 
1026 1026 1026 1026 1026 1026 1026 1026 1026 
1026 1026 1026 1026 1026 1026 1026 1026 1026 
1026 1026 1026 1026 1026 1026 1026 1026 1026 
1026 1026 1026 1026 1026 1026 1026 1026 1026 
1026 1026 1026 1026 1026 1026 1026 1026 1026 
1026 1026 1026 1026 1026 1026 1026 1026 1026 
1026 1026 1026 1026 1026 1026 1026 1026 1026 
1026 1026 1026 1026 1026 1026 1026 1026 1026 
1026 1026 1026 1026 1026 1026 1026 1026 1026 
1026 1026 1026 1026 1026 1026 1026 1026 1026 
1026 1026 1026 1026 1026 1026 1026 1026 1026 
1026 1026 1026 1026 1026 1026 1026 1026 1026 
1026 1026 1026 1026 1026 1026 1026 1026 1026 
1026 1026 1026 1026 1026 1026 1026 1026 1026 
1026 1026 1026 1026 1026 1026 1026 1026 1026 
1026 1026 1026 1026 1026 1026 1026 1026 1026 
1026 1026 1026 1026 1026 1026 1026 1026 1026 
1026 1026 1026 1026 1026 1026 1026 1026 1026 
1026 1026 1026 1026 1026 1026 1026 1026 1026 
1026 1026 1026 1026 1026 1026 1026 1026 1026 
1026 1026 1026 1026 1026 1026 1026 1026 1026 
1026 1026 1026 1026 1026 1026 1026 1026 1026 
1026 1026 1026 1026 1026 1026 1026 1026 1026 
1026 1026 1026 1026 1026 1026 1026 1026 1026 
1026 1026 1026 1026 1026 1026 1026 1026 1026 
1026 1026 1026 1026 1026 1026 1026 1026 1026 
1026 1026 1026 1026 1026 1026 1026 1026 1026 
1026 1026 1026 1026 1026 1026 1026 1026 1026 
1026 1026 1026 1026 1026 1026 1026 1026 1026 
1026 1026 1026 1026 1026 1026 1026 1026 1026 
1026 1026 1026 1026 1026 1026 1026 1026 1026 
1026 1026 1026 1026 1026 1026 1026 1026 1026 
1026 1026 1026 1026 1026 1026 1026 1026 1026 
1026 1026 1026 1026 1026 1026 1026 1026 1026 
1026 1026 1026 1026 1026 1026 1026 1026 1026 
1026 1026 1026 1026 1026 1026 1026 1026 1026 
1026 1026 1026 1026 1026 1026 1026 1026 1026 
1026 1026 1026 1026 1026 1026 1026 1026 1026 
1026 1026 1026 1026 1026 1026 1026 1026 1026 
1026 1026 1026 1026 1026 1026 1026 1026 1026 
1026 1026 1026 1026 1026 1026 1026 1026 1026 
1026 1026 1026 1026 1026 1026 1026 1026 1026 
1026 1026 1026 1026 1026 1026 1026 1026 1026 
1026 1026 1026 1026 1026 1026 1026 1026 1026 
1026 1026 1026 1026 1026 1026 1026 1026 1026 
1026 1026 1026 1026 1026 1026 1026 1026 1026 
1026 1026 1026 1026 1026 1026 1026 1026 1026 
1026 1026 1026 1026 1026 1026 1026 1026 1026 
1026 1026 1026 1026 1026 1026 1026 1026 1026 
1026 1026 1026 1026 1026 1026 1026 1026 1026 
1026 1026 1026 1026 1026 1026 1026 1026 1026 
1026 1026 1026 1026 1026 1026 1026 1026 1026 
1026 1026 1026 1026 1026 1026 1026 1026 1026 
1026 1026 1026 1026 1026 1026 1026 1026 1026 
1026 1026 1026 1026 1026 1026 1026 1026 1026 
1026 1026 1026 1026 1026 1026 1026 1026 1026 
1026 1026 1026 1026 1026 1026 1026 1026 1026 
1026 1026 1026 1026 1026 1026 1026 1026 1026 
1026 1026 1026 1026 1026 1026 1026 1026 1026 
1026 1026 1026 1026 1026 1026 1026 1026 1026 
1026 1026 1026 1026 1026 1026 1026 1026 1026 
1026 1026 1026 1026 1026 1026 1026 1026 1026 
1026 1026 1026 1026 1026 1026 1026 1026 1026 
1026 1026 1026 1026 1026 1026 1026 1026 1026 
1026 1026 1026 1026 1026 1026 1026 1026 1026 
1026 1026 1026 1026 1026 1026 1026 1026 1026 
1026 1026 1026 1026 1026 1026 1026 1026 1026 
1026 1026 1026 1026 1026 1026 1026 1026 1026 
1026 1026 1026 1026 1026 1026 1026 1026 1026 
1026 1026 1026 1026 1026 1026 1026 1026 1026 
1026 1026 1026 1026 1026 1026 1026 1026 1026 
1026 1026 1026 1026 1026 1026 1026 1026 1026 
1026 1026 1026 1026 1026 1026 1026 1026 1026 
1026 1026 1026 1026 1026 1026 1026 1026 1026 
1026 1026 1026 1026 1026 1026 1026 1026 1026 
1026 1026 1026 1026 1026 1026 1026 1026 1026 
1026 1026 1026 1026 1026 1026 1026 1026 1026 
1026 1026 1026 1026 1026 1026 1026 1026 1026 
1026 1026 1026 1026 1026 1026 1026 1026 1026 
1026 1026 1026 1026 1026 1026 1026 1026 1026 
1026 1026 1026 1026 1026 1026 1026 1026 1026 
1026 1026 1026 1026 1026 1026 1026 1026 1026 
1026 1026 1026 1026 1026 1026 1026 1026 1026 
1026 1026 1026 1026 1026 1026 1026 1026 1026 
1026 1026 1026 1026 1026 1026 1026 1026 1026 
1026 1026 1026 1026 1026 1026 1026 1026 1026 
1026 1026 1026 1026 1026 1026 1026 1026 1026 
1026 1026 1026 1026 1026 1026 1026 1026 1026 
1026 1026 1026 1026 1026 1026 1026 1026 1026 
1026 1026 1026 1026 1026 1026 1026 1026 1026 
1026 1026 1026 1026 1026 1026 1026 1026 1026 
1026 1026 1026 1026 1026 1026 1026 1026 1026 
1026 1026 1026 1026 1026 1026 1026 1026 1026 
1026 1026 1026 1026 1026 1026 1026 1026 1026 
1026 1026 1026 1026 1026 1026 1026 1026 1026 
1026 1026 1026 1026 1026 1026 1026 1026 1026 
1026 1026 1026 1026 1026 1026 1026 1026 1026 
1026 1026 1026 1026 1026 1026 1026 1026 1026 
1026 1026 1026 1026 1026 1026 1026 1026 1026 
1026 1026 1026 1026 1026 1026 1026 1026 1026 
1026 1026 1026 1026 1026 1026 1026 1026 1026 
1026 1026 1026 1026 1026 1026 1026 1026 1026 
1026 1026 1026 1026 1026 1026 1026 1026 1026 
1026 1026 1026 1026 1026 1026 1026 1026 1026 
1026 1026 1026 1026 1026 1026 1026 1026 1026 
1026 1026 1026 1026 1026 1026 1026 1026 1026 
1026 1026 1026 1026 1026 1026 1026 1026 1026 
1026 1026 1026 1026 1026 1026 1026 1026 1026 
1026 1026 1026 1026 1026 1026 1026 1026 1026 
1026 1026 1026 1026 1026 1026 1026 1026 1026 
1026 1026 1026 1026 1026 1026 1026 1026 1026 
1026 1026 1026 1026 1026 1026 1026 1026 1026 
1026 1026 1026 1026 1026 1026 1026 1026 1026 
1026 1026 1026 1026 1026 1026 1026 1026 1026 
1026 1026 1026 1026 1026 1026 1026 1026 1026 
1026 1026 1026 1026 1026 1026 1026 1026 1026 
1026 1026 1026 1026 1026 1026 1026 1026 1026 
1026 1026 1026 1026 1026 1026 1026 1026 1026 
1026 1026 1026 1026 1026 1026 1026 1026 1026 
1026 1026 1026 1026 1026 1026 1026 1026 1026 
1026 1026 1026 1026 1026 1026 1026 1026 1026 
1026 1026 1026 1026 1026 1026 1026 1026 1026 
1026 1026 1026 1026 1026 1026 1026 1026 1026 
1026 1026 1026 1026 1026 1026 1026 1026 1026 
1026 1026 1026 1026 1026 1026 1026 1026 1026 
1026 1026 1026 1026 1026 1026 1026 1026 1026 
1026 1026 1026 1026 1026 1026 1026 1026 1026 
1026 1026 1026 1026 1026 1026 1026 1026 1026 
1026 1026 1026 1026 1026 1026 1026 1026 1026 
1026 1026 1026 1026 1026 1026 1026 1026 1026 
1026 1026 1026 1026 1026 1026 1026 1026 1026 
1026 1026 1026 1026 1026 1026 1026 1026 1026 
1026 1026 1026 1026 1026 1026 1026 1026 1026 
1026 1026 1026 1026 1026 1026 1026 1026 1026 
1026 1026 1026 1026 1026 1026 1026 1026 1026 
1026 1026 1026 1026 1026 1026 1026 1026 1026 
1026 1026 1026 1026 1026 1026 1026 1026 1026 
1026 1026 1026 1026 1026 1026 1026 1026 1026 
1026 1026 1026 1026 1026 1026 1026 1026 1026 
1026 1026 1026 1026 1026 1026 1026 1026 1026 
1026 1026 1026 1026 1026 1026 1026 1026 1026 
1026 1026 1026 1026 1026 1026 1026 1026 1026 
1026 1026 1026 1026 1026 1026 1026 1026 1026 
1026 1026 1026 1026 1026 1026 1026 1026 1026 
1026 1026 1026 1026 1026 1026 1026 1026 1026 
1026 1026 1026 1026 1026 1026 1026 1026 1026 
1026 1026 1026 1026 1026 1026 1026 1026 1026 
1026 1026 1026 1026 1026 1026 1026 1026 1026 
1026 1026 1026 1026 1026 1026 1026 1026 1026 
1026 1026 1026 1026 1026 1026 1026 1026 1026 
1026 1026 1026 1026 1026 1026 1026 1026 1026 
1026 1026 1026 1026 1026 1026 1026 1026 1026 
1026 1026 1026 1026 1026 1026 1026 1026 1026 
1026 1026 1026 1026 1026 1026 1026 1026 1026 
1026 1026 1026 1026 1026 1026 1026 1026 1026 
1026 1026 1026 1026 1026 1026 1026 1026 1026 
1026 1026 1026 1026 1026 1026 1026 1026 1026 
1026 1026 1026 1026 1026 1026 1026 1026 1026 
1026 1026 1026 1026 1026 1026 1026 1026 1026 
1026 1026 1026 1026 1026 1026 1026 1026 1026 
1026 1026 1026 1026 1026 1026 1026 1026 1026 
1026 1026 1026 1026 1026 1026 1026 1026 1026 
1026 1026 1026 1026 1026 1026 1026 1026 1026 
1026 1026 1026 1026 1026 1026 1026 1026 1026 
1026 1026 1026 1026 1026 1026 1026 1026 1026 
1026 1026 1026 1026 1026 1026 1026 1026 1026 
1026 1026 1026 1026 1026 1026 1026 1026 1026 
1026 1026 1026 1026 1026 1026 1026 1026 1026 
1026 1026 1026 1026 1026 1026 1026 1026 1026 
1026 1026 1026 1026 1026 1026 1026 1026 1026 
1026 1026 1026 1026 1026 1026 1026 1026 1026 
1026 1026 1026 1026 1026 1026 1026 1026 1026 
1026 1026 1026 1026 1026 1026 1026 1026 1026 
1026 1026 1026 1026 1026 1026 1026 1026 1026 
1026 1026 1026 1026 1026 1026 1026 1026 1026 
1026 1026 1026 1026 1026 1026 1026 1026 1026 
1026 1026 1026 1026 1026 1026 1026 1026 1026 
1026 1026 1026 1026 1026 1026 1026 1026 1026 
1026 1026 1026 1026 1026 1026 1026 1026 1026 
1026 1026 1026 1026 1026 1026 1026 1026 1026 
1026 1026 1026 1026 1026 1026 1026 1026 1026 
1026 1026 1026 1026 1026 1026 1026 1026 1026 
1026 1026 1026 1026 1026 1026 1026 1026 1026 
1026 1026 1026 1026 1026 1026 1026 1026 1026 
1026 1026 1026 1026 1026 1026 1026 1026 1026 
1026 1026 1026 1026 1026 1026 1026 1026 1026 
1026 1026 1026 1026 1026 1026 1026 1026 1026 
1026 1026 1026 1026 1026 1026 1026 1026 1026 
1026 1026 1026 1026 1026 1026 1026 1026 1026 
1026 1026 1026 1026 1026 1026 1026 1026 1026 
1026 1026 1026 1026 1026 1026 1026 1026 1026 
1026 1026 1026 1026 1026 1026 1026 1026 1026 
1026 1026 1026 1026 1026 1026 1026 1026 1026 
1026 1026 1026 1026 1026 1026 1026 1026 1026 
1026 1026 1026 1026 1026 1026 1026 1026 1026 
1026 1026 1026 1026 1026 1026 1026 1026 1026 
1026 1026 1026 1026 1026 1026 1026 1026 1026 
1026 1026 1026 1026 1026 1026 1026 1026 1026 
1026 1026 1026 1026 1026 1026 1026 1026 1026 
1026 1026 1026 1026 1026 1026 1026 1026 1026 
1026 1026 1026 1026 1026 1026 1026 1026 1026 
1026 1026 1026 1026 1026 1026 1026 1026 1026 
1026 1026 1026 1026 1026 1026 1026 1026 1026 
1026 1026 1026 1026 1026 1026 1026 1026 1026 
1026 1026 1026 1026 1026 1026 1026 1026 1026 
1026 1026 1026 1026 1026 1026 1026 1026 1026 
1026 1026 1026 1026 1026 1026 1026 1026 1026 
1026 1026 1026 1026 1026 1026 1026 1026 1026 
1026 1026 1026 1026 1026 1026 1026 1026 1026 
1026 1026 1026 1026 1026 1026 1026 1026 1026 
1026 1026 1026 1026 1026 1026 1026 1026 1026 
1026 1026 1026 1026 1026 1026 1026 1026 1026 
1026 1026 1026 1026 1026 1026 1026 1026 1026 
1026 1026 1026 1026 1026 1026 1026 1026 1026 
1026 1026 1026 1026 1026 1026 1026 1026 1026 
1026 1026 1026 1026 1026 1026 1026 1026 1026 
1026 1026 1026 1026 1026 1026 1026 1026 1026 
1026 1026 1026 1026 1026 1026 1026 1026 1026 
1026 1026 1026 1026 1026 1026 1026 1026 1026 
1026 1026 1026 1026 1026 1026 1026 1026 1026 
1026 1026 1026 1026 1026 1026 1026 1026 1026 
1026 1026 1026 1026 1026 1026 1026 1026 1026 
1026 1026 1026 1026 1026 1026 1026 1026 1026 
1026 1026 1026 1026 1026 1026 1026 1026 1026 
1026 1026 1026 1026 1026 1026 1026 1026 1026 
1026 1026 1026 1026 1026 1026 1026 1026 1026 
1026 1026 1026 1026 1026 1026 1026 1026 1026 
1026 1026 1026 1026 1026 1026 1026 1026 1026 
1026 1026 1026 1026 1026 1026 1026 1026 1026 
1026 1026 1026 1026 1026 1026 1026 1026 1026 
1026 1026 1026 1026 1026 1026 1026 1026 1026 
1026 1026 1026 1026 1026 1026 1026 1026 1026 
1026 1026 1026 1026 1026 1026 1026 1026 1026 
1026 1026 1026 1026 1026 1026 1026 1026 1026 
1026 1026 1026 1026 1026 1026 1026 1026 1026 
1026 1026 1026 1026 1026 1026 1026 1026 1026 
1026 1026 1026 1026 1026 1026 1026 1026 1026 
1026 1026 1026 1026 1026 1026 1026 1026 1026 
1026 1026 1026 1026 1026 1026 1026 1026 1026 
1026 1026 1026 1026 1026 1026 1026 1026 1026 
1026 1026 1026 1026 1026 1026 1026 1026 1026 
1026 1026 1026 1026 1026 1026 1026 1026 1026 
1026 1026 1026 1026 1026 1026 1026 1026 1026 
1026 1026 1026 1026 1026 1026 1026 1026 1026 
1026 1026 1026 1026 1026 1026 1026 1026 1026 
1026 1026 1026 1026 1026 1026 1026 1026 1026 
1026 1026 1026 1026 1026 1026 1026 1026 1026 
1026 1026 1026 1026 1026 1026 1026 1026 1026 
1026 1026 1026 1026 1026 1026 1026 1026 1026 
1026 1026 1026 1026 1026 1026 1026 1026 1026 
1026 1026 1026 1026 1026 1026 1026 1026 1026 
1026 1026 1026 1026 1026 1026 1026 1026 1026 
1026 1026 1026 1026 1026 1026 1026 1026 1026 
1026 1026 1026 1026 1026 1026 1026 1026 1026 
1026 1026 1026 1026 1026 1026 1026 1026 1026 
1026 1026 1026 1026 1026 1026 1026 1026 1026 
1026 1026 1026 1026 1026 1026 1026 1026 1026 
1026 1026 1026 1026 1026 1026 1026 1026 1026 
1026 1026 1026 1026 1026 1026 1026 1026 1026 
1026 1026 1026 1026 1026 1026 1026 1026 1026 
1026 1026 1026 1026 1026 1026 1026 1026 1026 
1026 1026 1026 1026 1026 1026 1026 1026 1026 
1026 1026 1026 1026 1026 1026 1026 1026 1026 
1026 1026 1026 1026 1026 1026 1026 1026 1026 
1026 1026 1026 1026 1026 1026 1026 1026 1026 
1026 1026 1026 1026 1026 1026 1026 1026 1026 
1026 1026 1026 1026 1026 1026 1026 1026 1026 
1026 1026 1026 1026 1026 1026 1026 1026 1026 
1026 1026 1026 1026 1026 1026 1026 1026 1026 
1026 1026 1026 1026 1026 1026 1026 1026 1026 
1026 1026 1026 1026 1026 1026 1026 1026 1026 
1026 1026 1026 1026 1026 1026 1026 1026 1026 
1026 1026 1026 1026 1026 1026 1026 1026 1026 
1026 1026 1026 1026 1026 1026 1026 1026 1026 
1026 1026 1026 1026 1026 1026 1026 1026 1026 
1026 1026 1026 1026 1026 1026 1026 1026 1026 
1026 1026 1026 1026 1026 1026 1026 1026 1026 
1026 1026 1026 1026 1026 1026 1026 1026 1026 
1026 1026 1026 1026 1026 1026 1026 1026 1026 
1026 1026 1026 1026 1026 1026 1026 1026 1026 
1026 1026 1026 1026 1026 1026 1026 1026 1026 
1026 1026 1026 1026 1026 1026 1026 1026 1026 
1026 1026 1026 1026 1026 1026 1026 1026 1026 
1026 1026 1026 1026 1026 1026 1026 1026 1026 
1026 1026 1026 1026 1026 1026 1026 1026 1026 
1026 1026 1026 1026 1026 1026 1026 1026 1026 
1026 1026 1026 1026 1026 1026 1026 1026 1026 
1026 1026 1026 1026 1026 1026 1026 1026 1026 
1026 1026 1026 1026 1026 1026 1026 1026 1026 
1026 1026 1026 1026 1026 1026 1026 1026 1026 
1026 1026 1026 1026 1026 1026 1026 1026 1026 
1026 1026 1026 1026 1026 1026 1026 1026 1026 
1026 1026 1026 1026 1026 1026 1026 1026 1026 
1026 1026 1026 1026 1026 1026 1026 1026 1026 
1026 1026 1026 1026 1026 1026 1026 1026 1026 
1026 1026 1026 1026 1026 1026 1026 1026 1026 
1026 1026 1026 1026 1026 1026 1026 1026 1026 
1026 1026 1026 1026 1026 1026 1026 1026 1026 
1026 1026 1026 1026 1026 1026 1026 1026 1026 
1026 1026 1026 1026 1026 1026 1026 1026 1026 
1026 1026 1026 1026 1026 1026 1026 1026 1026 
1026 1026 1026 1026 1026 1026 1026 1026 1026 
1026 1026 1026 1026 1026 1026 1026 1026 1026 
1026 1026 1026 1026 1026 1026 1026 1026 1026 
1026 1026 1026 1026 1026 1026 1026 1026 1026 
1026 1026 1026 1026 1026 1026 1026 1026 1026 
1026 1026 1026 1026 1026 1026 1026 1026 1026 
1026 1026 1026 1026 1026 1026 1026 1026 1026 
1026 1026 1026 1026 1026 1026 1026 1026 1026 
1026 1026 1026 1026 1026 1026 1026 1026 1026 
1026 1026 1026 1026 1026 1026 1026 1026 1026 
1026 1026 1026 1026 1026 1026 1026 1026 1026 
1026 1026 1026 1026 1026 1026 1026 1026 1026 
1026 1026 1026 1026 1026 1026 1026 1026 1026 
1026 1026 1026 1026 1026 1026 1026 1026 1026 
1026 1026 1026 1026 1026 1026 1026 1026 1026 
1026 1026 1026 1026 1026 1026 1026 1026 1026 
1026 1026 1026 1026 1026 1026 1026 1026 1026 
1026 1026 1026 1026 1026 1026 1026 1026 1026 
1026 1026 1026 1026 1026 1026 1026 1026 1026 
1026 1026 1026 1026 1026 1026 1026 1026 1026 
1026 1026 1026 1026 1026 1026 1026 1026 1026 
1026 1026 1026 1026 1026 1026 1026 1026 1026 
1026 1026 1026 1026 1026 1026 1026 1026 1026 
1026 1026 1026 1026 1026 1026 1026 1026 1026 
1026 1026 1026 1026 1026 1026 1026 1026 1026 
1026 1026 1026 1026 1026 1026 1026 1026 1026 
1026 1026 1026 1026 1026 1026 1026 1026 1026 
1026 1026 1026 1026 1026 1026 1026 1026 1026 
1026 1026 1026 1026 1026 1026 1026 1026 1026 
1026 1026 1026 1026 1026 1026 1026 1026 1026 
1026 1026 1026 1026 1026 1026 1026 1026 1026 
1026 1026 1026 1026 1026 1026 1026 1026 1026 
1026 1026 1026 1026 1026 1026 1026 1026 1026 
1026 1026 1026 1026 1026 1026 1026 1026 1026 
1026 1026 1026 1026 1026 1026 1026 1026 1026 
1026 1026 1026 1026 1026 1026 1026 1026 1026 