# vtk DataFile Version 4.0
vtk output
ASCII
DATASET POLYDATA
POINTS 13322 float
-29.2929 29.7467 45.9764 -28.9373 29.5001 46.2872 -28.7991 29.4815 45.7696 
-29.8419 29.7309 45.8621 -29.678 29.5734 46.385 -30.2897 29.3136 46.2077 
-29.4067 29.3726 45.4512 -30.0685 29.2974 45.6446 -27.2626 28.805 47.8709 
-26.8565 28.452 48.35 -26.5168 28.5004 47.6849 -28.2399 28.8903 47.8935 
-27.7065 28.5313 48.5105 -29.3108 28.8963 47.8669 -28.901 28.4243 48.5328 
-30.0934 28.7853 47.7837 -29.9755 28.3972 48.3516 -30.5828 28.3681 48.007 
-27.0896 28.8717 46.9985 -26.4348 28.4948 46.7405 -27.8297 29.0186 47.1929 
-28.8872 29.1857 46.9933 -29.9304 29.126 47.0548 -30.5862 28.5483 46.9813 
-27.1054 28.8817 45.9634 -26.4676 28.4824 45.7311 -28.1177 29.1554 46.1198 
-30.4091 28.7141 45.9481 -27.119 28.8163 45.0114 -26.6554 28.4523 44.8727 
-27.9721 29.0409 44.9423 -28.8492 29.0677 44.951 -29.4715 28.6248 44.8725 
-29.9538 28.4147 45.3893 -27.1749 28.6214 44.3399 -27.6486 28.4959 43.7049 
-27.8613 28.8431 44.143 -28.7237 28.8332 44.016 -29.357 28.4014 44.1987 
-28.4276 28.3618 43.3933 -29.1207 28.2422 43.5999 -26.1976 27.7746 49.022 
-26.05 27.5024 49.3744 -25.5869 27.4471 48.816 -27.0664 28.0253 48.9259 
-26.7361 27.5106 49.5055 -28.2627 28.0222 48.9998 -27.9363 27.4037 49.4943 
-29.141 27.854 48.9487 -28.9813 27.3712 49.2716 -29.6627 27.3317 49.0521 
-26.1261 28.0079 48.2772 -25.4409 27.5131 47.7111 -30.0069 27.6231 48.7221 
-31.0844 27.9582 47.6945 -30.9628 27.5932 48.3851 -31.5984 27.2818 47.8896 
-25.9449 28.0033 47.2518 -25.4547 27.4899 46.6944 -30.9732 27.8537 46.9149 
-31.3305 27.4852 47.2338 -25.9528 27.9881 46.2399 -25.4679 27.4881 45.6837 
-30.5361 27.7849 46.1082 -31.0369 27.1819 46.5372 -26.1004 27.9995 45.0565 
-25.4976 27.4946 44.6724 -29.702 27.7405 44.7347 -30.0804 27.2045 45.4084 
-26.1382 27.8167 43.9876 -25.605 27.4988 44.0083 -26.9113 28.2133 43.9703 
-29.4779 27.4954 43.989 -25.9068 27.4098 43.407 -26.4303 27.3571 42.811 
-26.8119 27.8364 43.1439 -27.6981 27.9956 43.0297 -28.3071 27.6753 42.9325 
-28.8681 27.3284 43.362 -27.0783 27.3616 42.5948 -27.7425 27.2526 42.6433 
-26.0724 27.0128 49.7785 -25.8981 26.4258 50.3291 -25.3834 26.5624 49.8471 
-27.2744 27.0075 49.9955 -26.7774 26.5104 50.4841 -28.1316 26.8173 49.9229 
-27.7412 26.4886 50.4251 -28.4999 26.1571 50.1607 -25.1565 26.8563 49.174 
-24.8817 26.3366 49.558 -24.6577 26.3578 48.8803 -28.8358 26.6956 49.5874 
-30.2331 26.8813 48.917 -29.7046 26.5999 49.2032 -30.3246 26.2809 48.8788 
-24.9689 26.9919 48.2365 -24.619 26.336 47.9523 -30.9615 26.4376 48.6221 
-32.0761 26.7262 47.8368 -31.8598 26.6808 48.339 -32.3971 26.1306 47.9082 
-24.9731 26.9876 47.2223 -24.6624 26.3136 46.973 -31.6959 26.557 46.9581 
-32.2368 26.3109 47.3718 -24.995 26.9708 46.2236 -24.6409 26.3378 45.9704 
-30.6094 26.7776 45.933 -31.1237 26.4041 46.2535 -24.9759 26.9813 45.2038 
-24.4929 26.3785 44.8295 -29.6003 26.5027 44.8678 -30.3371 26.2426 45.479 
-25.1183 27.0172 44.138 -24.647 26.4592 43.8242 -29.3323 26.6773 43.9168 
-25.2377 26.7158 43.3349 -25.8457 26.9327 42.9539 -25.3857 26.3527 42.8486 
-28.1847 27.0647 42.9373 -27.7712 26.6188 42.8207 -28.3331 26.4609 43.2471 
-28.917 26.3618 43.6378 -26.2094 26.4295 42.5565 -27.2984 26.4196 42.5401 
-25.2172 25.7451 51.0109 -25.0424 25.4786 51.3603 -24.5824 25.4459 50.806 
-26.1102 25.9867 50.9117 -25.7121 25.493 51.4931 -27.2909 26.017 50.9944 
-26.7943 25.5083 51.5198 -28.0602 25.9835 50.8291 -27.968 25.3207 51.5003 
-28.5455 25.4872 50.849 -25.1418 26.0424 50.3076 -24.4398 25.6859 49.6691 
-28.7955 25.4955 50.2061 -24.3432 25.6167 48.6662 -29.1859 25.8239 49.5347 
-29.8615 25.8734 49.0231 -29.5631 25.1344 49.1288 -24.403 25.4052 47.664 
-30.3094 25.6135 48.6822 -31.1124 25.3277 48.3463 -32.0022 25.763 48.2833 
-32.4073 25.4479 47.7521 -24.5182 25.622 46.7646 -27.2887 25.8729 46.9081 
-26.6334 25.4279 46.9996 -26.9446 25.4256 47.564 -27.6689 25.4388 47.3307 
-28.2146 25.8438 46.7414 -28.2998 25.5405 47.0177 -32.1443 26.017 46.9299 
-32.3792 25.6973 47.222 -24.3252 25.5817 45.8985 -27.0875 25.8467 46.0718 
-26.6125 25.1895 45.9456 -28.0298 26.0341 45.993 -28.7294 25.4051 46.5189 
-29.0573 25.8952 45.852 -29.3317 25.4831 45.998 -30.9085 26.0479 45.8224 
-31.4993 25.4212 46.0861 -31.9832 25.4887 46.7179 -24.0516 25.8445 45.0123 
-23.9292 25.304 45.5478 -23.7065 25.3805 44.8635 -27.1078 25.5923 45.3594 
-27.9371 25.8294 45.091 -27.5707 25.4261 44.7668 -28.8 26.0677 45.1391 
-29.909 25.4758 45.4277 -30.9368 25.471 45.4192 -24.086 26.0199 44.0112 
-23.6067 25.4192 43.886 -28.2 25.5374 44.3579 -28.8966 26.0174 44.2836 
-28.5695 25.7254 43.6376 -23.9318 25.788 43.1428 -23.4664 25.2763 43.0221 
-24.6163 26.0735 43.0775 -28.0643 26.0266 42.9693 -28.816 25.5998 43.0262 
-28.8399 25.2589 43.3778 -29.2264 25.4013 43.0069 -24.0229 25.4011 42.6273 
-25.1207 25.5477 42.4417 -26.1694 25.5004 42.2636 -27.0335 25.609 42.3159 
-28.1261 25.504 42.5861 -28.9834 25.2922 42.801 -25.048 25.0101 51.7895 
-25.0397 24.5275 52.3822 -24.4608 24.5091 51.9987 -26.2439 25.0115 52.0222 
-25.7412 24.5182 52.5169 -27.314 25.0085 52.009 -26.9283 24.4107 52.5213 
-27.963 24.8957 51.9872 -27.8035 24.5196 52.2549 -28.4266 24.3395 51.9435 
-24.1285 24.8639 51.1615 -23.8768 24.3333 51.5657 -23.6534 24.3521 50.8851 
-28.9963 24.9336 50.6446 -28.8136 24.6895 51.3526 -29.2698 24.2563 50.9975 
-23.9596 25.003 50.2222 -23.6119 24.3654 49.9435 -29.1042 25.1372 49.8949 
-29.4745 24.3454 50.0114 -23.9704 25.0051 49.2477 -23.65 24.3352 48.9511 
-29.5518 24.2672 48.7644 -24.025 24.8653 48.3208 -23.7117 24.0924 47.9048 
-27.1483 24.8812 47.8853 -26.6549 24.7538 47.8097 -26.9289 24.2962 48.2417 
-27.2833 24.2526 48.0941 -30.1523 24.7641 48.391 -31.1079 24.7593 47.8947 
-30.3928 24.2791 47.8865 -31.8988 25.1401 47.9541 -24.1107 24.5822 47.5767 
-24.2852 24.7828 46.8601 -26.4502 24.5074 47.0292 -27.6757 24.4322 47.2924 
-28.1716 25.1266 46.9815 -31.0616 24.2718 47.4593 -31.9387 24.9764 47.3105 
-31.6101 24.4707 46.7949 -24.0749 24.8425 46.1386 -23.9535 24.2742 46.569 
-23.7007 24.4895 45.8609 -26.4817 24.2936 46.1343 -28.3108 24.6483 46.527 
-29.0363 24.9848 45.9978 -28.5569 24.1458 45.7943 -31.6393 24.2883 46.1231 
-23.5025 24.5267 44.9208 -27.0276 25.1453 44.8699 -26.5964 24.4921 45.0626 
-29.2737 24.685 45.3933 -29.9604 24.8268 44.9813 -29.5273 24.5072 44.9441 
-30.7444 24.9207 44.9126 -31.3861 24.6109 45.2887 -23.2823 24.6672 43.8634 
-26.9594 24.7501 44.21 -26.5474 24.3197 44.1907 -27.8358 25.0682 44.0298 
-30.1165 24.297 44.5422 -30.9929 24.5076 44.7192 -23.0356 24.7946 43.0609 
-22.891 24.3993 43.4939 -22.7135 24.1788 43.0036 -27.046 24.3218 43.574 
-28.3015 24.6657 43.3226 -29.0212 25.0466 43.045 -28.7082 24.689 42.6071 
-23.304 24.5814 42.6005 -24.1897 24.7143 42.3135 -25.0667 24.8782 41.8919 
-24.5225 24.1504 41.7578 -25.9879 25.1275 41.8116 -27.0127 25.1269 41.7874 
-28.0126 25.0336 42.0553 -28.8952 24.6631 41.7962 -29.1712 24.4442 42.2274 
-29.2784 24.4233 41.9483 -25.1131 24.5709 41.363 -25.4189 24.3724 40.8122 
-25.7948 24.8018 41.1762 -26.7911 24.8699 41.0195 -27.9269 24.8022 41.1058 
-28.5934 24.5156 41.0428 -29.0237 24.3879 41.5166 -26.1946 24.2563 40.487 
-27.2428 24.4813 40.4743 -27.8845 24.2336 40.5799 -25.0877 24.0143 52.8056 
-24.9097 23.1336 53.3319 -24.3887 23.5558 52.8737 -26.2815 24.0063 53.0071 
-26.0195 23.3795 53.3735 -27.1446 23.8352 52.9492 -26.9896 23.372 53.3044 
-27.6391 23.3444 53.0719 -24.135 23.9359 52.2664 -23.9 23.3381 52.6028 
-23.6182 23.5364 51.846 -28.0389 23.5647 52.5747 -28.7101 23.3989 52.0652 
-23.3601 23.5041 50.813 -29.1843 23.5225 51.6082 -29.6643 23.5769 50.949 
-23.348 23.6706 49.6578 -29.9266 23.6819 50.4133 -29.9024 23.7899 49.84 
-30.2873 23.1855 50.1203 -23.3584 23.6141 48.6459 -29.6228 23.6264 49.0174 
-30.0481 23.3477 49.4041 -23.3738 23.2559 47.7418 -26.5471 23.6685 47.9289 
-27.0792 23.7444 48.3848 -27.4187 23.4432 48.0946 -29.8346 24.0471 48.0979 
-29.5947 23.3733 47.9291 -23.9635 24.1564 47.1469 -23.645 23.683 46.91 
-26.3724 23.4164 46.7026 -27.6298 23.2375 46.9431 -30.2686 23.6076 47.5441 
-31.0456 23.6756 47.2106 -31.4295 23.3668 46.6231 -23.5469 23.4654 45.9898 
-26.4916 23.6432 45.7579 -28.0014 23.83 46.4151 -28.2505 23.2842 45.6758 
-31.5166 23.5036 45.7072 -23.4156 23.5372 44.9497 -26.3157 23.6165 44.8749 
-29.085 24.1296 45.0028 -28.6163 23.3366 44.8814 -30.9925 23.9699 44.8932 
-30.8042 23.3819 44.7051 -31.1788 23.3232 45.2271 -23.0672 23.9729 44.0984 
-23.047 23.1885 44.413 -22.6773 23.7303 43.6771 -26.1454 23.8637 44.0062 
-25.6656 23.1779 43.8282 -25.8926 23.319 44.5041 -29.2351 23.7046 44.3293 
-29.8268 23.7665 43.9643 -29.3784 23.3513 43.8035 -30.4001 23.6487 44.1854 
-22.3722 23.3386 43.0988 -26.2212 23.6735 43.3805 -27.0634 23.7928 42.9101 
-26.5374 23.4023 42.814 -27.9971 24.1435 42.8334 -29.9035 23.1793 43.6515 
-22.8361 23.5172 42.594 -23.7393 23.6774 42.2732 -24.2868 23.2335 41.6894 
-27.1503 23.4564 42.3616 -27.877 23.7746 42.1476 -27.5062 23.4189 41.5689 
-28.8172 24.183 42.0785 -24.9128 24.0888 41.0548 -24.6892 23.4175 41.039 
-28.3174 23.9932 41.216 -27.5957 23.6086 40.8015 -25.2518 23.6863 40.5411 
-25.809 23.2645 40.4264 -26.8905 23.6862 40.4537 -24.1334 23.0269 53.0721 
-24.1302 22.3795 53.31 -23.6759 22.6737 52.7168 -24.7897 22.2783 53.6602 
-25.746 22.6348 53.6748 -26.913 22.5422 53.6167 -28.0507 22.9879 52.9918 
-27.7665 22.694 53.284 -28.4211 22.3154 52.9136 -23.2958 22.5911 51.906 
-29.0447 22.9562 51.9738 -28.9626 22.5103 52.3441 -29.5138 22.446 51.9671 
-23.0529 22.8211 51.0599 -22.9289 22.296 51.555 -22.7229 22.3516 50.901 
-30.1014 23.1067 50.8358 -30.0511 22.4757 51.5076 -30.5218 22.5012 50.8688 
-23.0047 23.0154 50.2318 -22.6395 22.3698 49.9584 -30.6697 22.5233 50.1428 
-22.9883 23.0469 49.2312 -22.6424 22.3558 48.9739 -26.9348 23.0023 48.6764 
-26.4488 22.3875 49.0877 -27.035 22.403 49.2126 -27.3447 22.4398 48.8976 
-29.8954 22.9555 48.8372 -30.5014 22.4648 49.1214 -22.9973 22.9137 48.3037 
-22.7386 22.1383 48.1273 -26.1889 22.8629 48.2085 -25.6821 22.3455 47.9087 
[...]
CELL_DATA 26660
SCALARS scalars float
LOOKUP_TABLE default
1003 1003 1003 1003 1003 1003 1003 1003 1003 
1003 1003 1003 1003 1003 1003 1003 1003 1003 
1003 1003 1003 1003 1003 1003 1003 1003 1003 
1003 1003 1003 1003 1003 1003 1003 1003 1003 
1003 1003 1003 1003 1003 1003 1003 1003 1003 
1003 1003 1003 1003 1003 1003 1003 1003 1003 
1003 1003 1003 1003 1003 1003 1003 1003 1003 
1003 1003 1003 1003 1003 1003 1003 1003 1003 
1003 1003 1003 1003 1003 1003 1003 1003 1003 
1003 1003 1003 1003 1003 1003 1003 1003 1003 
1003 1003 1003 1003 1003 1003 1003 1003 1003 
1003 1003 1003 1003 1003 1003 1003 1003 1003 
1003 1003 1003 1003 1003 1003 1003 1003 1003 
1003 1003 1003 1003 1003 1003 1003 1003 1003 
1003 1003 1003 1003 1003 1003 1003 1003 1003 
1003 1003 1003 1003 1003 1003 1003 1003 1003 
1003 1003 1003 1003 1003 1003 1003 1003 1003 
1003 1003 1003 1003 1003 1003 1003 1003 1003 
1003 1003 1003 1003 1003 1003 1003 1003 1003 
1003 1003 1003 1003 1003 1003 1003 1003 1003 
1003 1003 1003 1003 1003 1003 1003 1003 1003 
1003 1003 1003 1003 1003 1003 1003 1003 1003 
1003 1003 1003 1003 1003 1003 1003 1003 1003 
1003 1003 1003 1003 1003 1003 1003 1003 1003 
1003 1003 1003 1003 1003 1003 1003 1003 1003 
1003 1003 1003 1003 1003 1003 1003 1003 1003 
1003 1003 1003 1003 1003 1003 1003 1003 1003 
1003 1003 1003 1003 1003 1003 1003 1003 1003 
1003 1003 1003 1003 1003 1003 1003 1003 1003 
1003 1003 1003 1003 1003 1003 1003 1003 1003 
1003 1003 1003 1003 1003 1003 1003 1003 1003 
1003 1003 1003 1003 1003 1003 1003 1003 1003 
1003 1003 1003 1003 1003 1003 1003 1003 1003 
1003 1003 1003 1003 1003 1003 1003 1003 1003 
1003 1003 1003 1003 1003 1003 1003 1003 1003 
1003 1003 1003 1003 1003 1003 1003 1003 1003 
1003 1003 1003 1003 1003 1003 1003 1003 1003 
1003 1003 1003 1003 1003 1003 1003 1003 1003 
1003 1003 1003 1003 1003 1003 1003 1003 1003 
1003 1003 1003 1003 1003 1003 1003 1003 1003 
1003 1003 1003 1003 1003 1003 1003 1003 1003 
1003 1003 1003 1003 1003 1003 1003 1003 1003 
1003 1003 1003 1003 1003 1003 1003 1003 1003 
1003 1003 1003 1003 1003 1003 1003 1003 1003 
1003 1003 1003 1003 1003 1003 1003 1003 1003 
1003 1003 1003 1003 1003 1003 1003 1003 1003 
1003 1003 1003 1003 1003 1003 1003 1003 1003 
1003 1003 1003 1003 1003 1003 1003 1003 1003 
1003 1003 1003 1003 1003 1003 1003 1003 1003 
1003 1003 1003 1003 1003 1003 1003 1003 1003 
1003 1003 1003 1003 1003 1003 1003 1003 1003 
1003 1003 1003 1003 1003 1003 1003 1003 1003 
1003 1003 1003 1003 1003 1003 1003 1003 1003 
1003 1003 1003 1003 1003 1003 1003 1003 1003 
1003 1003 1003 1003 1003 1003 1003 1003 1003 
1003 1003 1003 1003 1003 1003 1003 1003 1003 
1003 1003 1003 1003 1003 1003 1003 1003 1003 
1003 1003 1003 1003 1003 1003 1003 1003 1003 
1003 1003 1003 1003 1003 1003 1003 1003 1003 
1003 1003 1003 1003 1003 1003 1003 1003 1003 
1003 1003 1003 1003 1003 1003 1003 1003 1003 
1003 1003 1003 1003 1003 1003 1003 1003 1003 
1003 1003 1003 1003 1003 1003 1003 1003 1003 
1003 1003 1003 1003 1003 1003 1003 1003 1003 
1003 1003 1003 1003 1003 1003 1003 1003 1003 
1003 1003 1003 1003 1003 1003 1003 1003 1003 
1003 1003 1003 1003 1003 1003 1003 1003 1003 
1003 1003 1003 1003 1003 1003 1003 1003 1003 
1003 1003 1003 1003 1003 1003 1003 1003 1003 
1003 1003 1003 1003 1003 1003 1003 1003 1003 
1003 1003 1003 1003 1003 1003 1003 1003 1003 
1003 1003 1003 1003 1003 1003 1003 1003 1003 
1003 1003 1003 1003 1003 1003 1003 1003 1003 
1003 1003 1003 1003 1003 1003 1003 1003 1003 
1003 1003 1003 1003 1003 1003 1003 1003 1003 
1003 1003 1003 1003 1003 1003 1003 1003 1003 
1003 1003 1003 1003 1003 1003 1003 1003 1003 
1003 1003 1003 1003 1003 1003 1003 1003 1003 
1003 1003 1003 1003 1003 1003 1003 1003 1003 
1003 1003 1003 1003 1003 1003 1003 1003 1003 
1003 1003 1003 1003 1003 1003 1003 1003 1003 
1003 1003 1003 1003 1003 1003 1003 1003 1003 
1003 1003 1003 1003 1003 1003 1003 1003 1003 
1003 1003 1003 1003 1003 1003 1003 1003 1003 
1003 1003 1003 1003 1003 1003 1003 1003 1003 
1003 1003 1003 1003 1003 1003 1003 1003 1003 
1003 1003 1003 1003 1003 1003 1003 1003 1003 
1003 1003 1003 1003 1003 1003 1003 1003 1003 
1003 1003 1003 1003 1003 1003 1003 1003 1003 
1003 1003 1003 1003 1003 1003 1003 1003 1003 
1003 1003 1003 1003 1003 1003 1003 1003 1003 
1003 1003 1003 1003 1003 1003 1003 1003 1003 
1003 1003 1003 1003 1003 1003 1003 1003 1003 
1003 1003 1003 1003 1003 1003 1003 1003 1003 
1003 1003 1003 1003 1003 1003 1003 1003 1003 
1003 1003 1003 1003 1003 1003 1003 1003 1003 
1003 1003 1003 1003 1003 1003 1003 1003 1003 
1003 1003 1003 1003 1003 1003 1003 1003 1003 
1003 1003 1003 1003 1003 1003 1003 1003 1003 
1003 1003 1003 1003 1003 1003 1003 1003 1003 
1003 1003 1003 1003 1003 1003 1003 1003 1003 
1003 1003 1003 1003 1003 1003 1003 1003 1003 
1003 1003 1003 1003 1003 1003 1003 1003 1003 
1003 1003 1003 1003 1003 1003 1003 1003 1003 
1003 1003 1003 1003 1003 1003 1003 1003 1003 
1003 1003 1003 1003 1003 1003 1003 1003 1003 
1003 1003 1003 1003 1003 1003 1003 1003 1003 
1003 1003 1003 1003 1003 1003 1003 1003 1003 
1003 1003 1003 1003 1003 1003 1003 1003 1003 
1003 1003 1003 1003 1003 1003 1003 1003 1003 
1003 1003 1003 1003 1003 1003 1003 1003 1003 
1003 1003 1003 1003 1003 1003 1003 1003 1003 
1003 1003 1003 1003 1003 1003 1003 1003 1003 
1003 1003 1003 1003 1003 1003 1003 1003 1003 
1003 1003 1003 1003 1003 1003 1003 1003 1003 
1003 1003 1003 1003 1003 1003 1003 1003 1003 
1003 1003 1003 1003 1003 1003 1003 1003 1003 
1003 1003 1003 1003 1003 1003 1003 1003 1003 
1003 1003 1003 1003 1003 1003 1003 1003 1003 
1003 1003 1003 1003 1003 1003 1003 1003 1003 
1003 1003 1003 1003 1003 1003 1003 1003 1003 
1003 1003 1003 1003 1003 1003 1003 1003 1003 
1003 1003 1003 1003 1003 1003 1003 1003 1003 
1003 1003 1003 1003 1003 1003 1003 1003 1003 
1003 1003 1003 1003 1003 1003 1003 1003 1003 
1003 1003 1003 1003 1003 1003 1003 1003 1003 
1003 1003 1003 1003 1003 1003 1003 1003 1003 
1003 1003 1003 1003 1003 1003 1003 1003 1003 
1003 1003 1003 1003 1003 1003 1003 1003 1003 
1003 1003 1003 1003 1003 1003 1003 1003 1003 
1003 1003 1003 1003 1003 1003 1003 1003 1003 
1003 1003 1003 1003 1003 1003 1003 1003 1003 
1003 1003 1003 1003 1003 1003 1003 1003 1003 
1003 1003 1003 1003 1003 1003 1003 1003 1003 
1003 1003 1003 1003 1003 1003 1003 1003 1003 
1003 1003 1003 1003 1003 1003 1003 1003 1003 
1003 1003 1003 1003 1003 1003 1003 1003 1003 
1003 1003 1003 1003 1003 1003 1003 1003 1003 
1003 1003 1003 1003 1003 1003 1003 1003 1003 
1003 1003 1003 1003 1003 1003 1003 1003 1003 
1003 1003 1003 1003 1003 1003 1003 1003 1003 
1003 1003 1003 1003 1003 1003 1003 1003 1003 
1003 1003 1003 1003 1003 1003 1003 1003 1003 
1003 1003 1003 1003 1003 1003 1003 1003 1003 
1003 1003 1003 1003 1003 1003 1003 1003 1003 
1003 1003 1003 1003 1003 1003 1003 1003 1003 
1003 1003 1003 1003 1003 1003 1003 1003 1003 
1003 1003 1003 1003 1003 1003 1003 1003 1003 
1003 1003 1003 1003 1003 1003 1003 1003 1003 
1003 1003 1003 1003 1003 1003 1003 1003 1003 
1003 1003 1003 1003 1003 1003 1003 1003 1003 
1003 1003 1003 1003 1003 1003 1003 1003 1003 
1003 1003 1003 1003 1003 1003 1003 1003 1003 
1003 1003 1003 1003 1003 1003 1003 1003 1003 
1003 1003 1003 1003 1003 1003 1003 1003 1003 
1003 1003 1003 1003 1003 1003 1003 1003 1003 
1003 1003 1003 1003 1003 1003 1003 1003 1003 
1003 1003 1003 1003 1003 1003 1003 1003 1003 
1003 1003 1003 1003 1003 1003 1003 1003 1003 
1003 1003 1003 1003 1003 1003 1003 1003 1003 
1003 1003 1003 1003 1003 1003 1003 1003 1003 
1003 1003 1003 1003 1003 1003 1003 1003 1003 
1003 1003 1003 1003 1003 1003 1003 1003 1003 
1003 1003 1003 1003 1003 1003 1003 1003 1003 
1003 1003 1003 1003 1003 1003 1003 1003 1003 
1003 1003 1003 1003 1003 1003 1003 1003 1003 
1003 1003 1003 1003 1003 1003 1003 1003 1003 
1003 1003 1003 1003 1003 1003 1003 1003 1003 
1003 1003 1003 1003 1003 1003 1003 1003 1003 
1003 1003 1003 1003 1003 1003 1003 1003 1003 
1003 1003 1003 1003 1003 1003 1003 1003 1003 
1003 1003 1003 1003 1003 1003 1003 1003 1003 
1003 1003 1003 1003 1003 1003 1003 1003 1003 
1003 1003 1003 1003 1003 1003 1003 1003 1003 
1003 1003 1003 1003 1003 1003 1003 1003 1003 
1003 1003 1003 1003 1003 1003 1003 1003 1003 
1003 1003 1003 1003 1003 1003 1003 1003 1003 
1003 1003 1003 1003 1003 1003 1003 1003 1003 
1003 1003 1003 1003 1003 1003 1003 1003 1003 
1003 1003 1003 1003 1003 1003 1003 1003 1003 
1003 1003 1003 1003 1003 1003 1003 1003 1003 
1003 1003 1003 1003 1003 1003 1003 1003 1003 
1003 1003 1003 1003 1003 1003 1003 1003 1003 
1003 1003 1003 1003 1003 1003 1003 1003 1003 
1003 1003 1003 1003 1003 1003 1003 1003 1003 
1003 1003 1003 1003 1003 1003 1003 1003 1003 
1003 1003 1003 1003 1003 1003 1003 1003 1003 
1003 1003 1003 1003 1003 1003 1003 1003 1003 
1003 1003 1003 1003 1003 1003 1003 1003 1003 
1003 1003 1003 1003 1003 1003 1003 1003 1003 
1003 1003 1003 1003 1003 1003 1003 1003 1003 
1003 1003 1003 1003 1003 1003 1003 1003 1003 
1003 1003 1003 1003 1003 1003 1003 1003 1003 
1003 1003 1003 1003 1003 1003 1003 1003 1003 
1003 1003 1003 1003 1003 1003 1003 1003 1003 
1003 1003 1003 1003 1003 1003 1003 1003 1003 
1003 1003 1003 1003 1003 1003 1003 1003 1003 
1003 1003 1003 1003 1003 1003 1003 1003 1003 
1003 1003 1003 1003 1003 1003 1003 1003 1003 
1003 1003 1003 1003 1003 1003 1003 1003 1003 
1003 1003 1003 1003 1003 1003 1003 1003 1003 
1003 1003 1003 1003 1003 1003 1003 1003 1003 
1003 1003 1003 1003 1003 1003 1003 1003 1003 
1003 1003 1003 1003 1003 1003 1003 1003 1003 
1003 1003 1003 1003 1003 1003 1003 1003 1003 
1003 1003 1003 1003 1003 1003 1003 1003 1003 
1003 1003 1003 1003 1003 1003 1003 1003 1003 
1003 1003 1003 1003 1003 1003 1003 1003 1003 
1003 1003 1003 1003 1003 1003 1003 1003 1003 
1003 1003 1003 1003 1003 1003 1003 1003 1003 
1003 1003 1003 1003 1003 1003 1003 1003 1003 
1003 1003 1003 1003 1003 1003 1003 1003 1003 
1003 1003 1003 1003 1003 1003 1003 1003 1003 
1003 1003 1003 1003 1003 1003 1003 1003 1003 
1003 1003 1003 1003 1003 1003 1003 1003 1003 
1003 1003 1003 1003 1003 1003 1003 1003 1003 
1003 1003 1003 1003 1003 1003 1003 1003 1003 
1003 1003 1003 1003 1003 1003 1003 1003 1003 
1003 1003 1003 1003 1003 1003 1003 1003 1003 
1003 1003 1003 1003 1003 1003 1003 1003 1003 
1003 1003 1003 1003 1003 1003 1003 1003 1003 
1003 1003 1003 1003 1003 1003 1003 1003 1003 
1003 1003 1003 1003 1003 1003 1003 1003 1003 
1003 1003 1003 1003 1003 1003 1003 1003 1003 
1003 1003 1003 1003 1003 1003 1003 1003 1003 
1003 1003 1003 1003 1003 1003 1003 1003 1003 
1003 1003 1003 1003 1003 1003 1003 1003 1003 
1003 1003 1003 1003 1003 1003 1003 1003 1003 
1003 1003 1003 1003 1003 1003 1003 1003 1003 
1003 1003 1003 1003 1003 1003 1003 1003 1003 
1003 1003 1003 1003 1003 1003 1003 1003 1003 
1003 1003 1003 1003 1003 1003 1003 1003 1003 
1003 1003 1003 1003 1003 1003 1003 1003 1003 
1003 1003 1003 1003 1003 1003 1003 1003 1003 
1003 1003 1003 1003 1003 1003 1003 1003 1003 
1003 1003 1003 1003 1003 1003 1003 1003 1003 
1003 1003 1003 1003 1003 1003 1003 1003 1003 
1003 1003 1003 1003 1003 1003 1003 1003 1003 
1003 1003 1003 1003 1003 1003 1003 1003 1003 
1003 1003 1003 1003 1003 1003 1003 1003 1003 
1003 1003 1003 1003 1003 1003 1003 1003 1003 
1003 1003 1003 1003 1003 1003 1003 1003 1003 
1003 1003 1003 1003 1003 1003 1003 1003 1003 
1003 1003 1003 1003 1003 1003 1003 1003 1003 
1003 1003 1003 1003 1003 1003 1003 1003 1003 
1003 1003 1003 1003 1003 1003 1003 1003 1003 
1003 1003 1003 1003 1003 1003 1003 1003 1003 
1003 1003 1003 1003 1003 1003 1003 1003 1003 
1003 1003 1003 1003 1003 1003 1003 1003 1003 
1003 1003 1003 1003 1003 1003 1003 1003 1003 
1003 1003 1003 1003 1003 1003 1003 1003 1003 
1003 1003 1003 1003 1003 1003 1003 1003 1003 
1003 1003 1003 1003 1003 1003 1003 1003 1003 
1003 1003 1003 1003 1003 1003 1003 1003 1003 
1003 1003 1003 1003 1003 1003 1003 1003 1003 
1003 1003 1003 1003 1003 1003 1003 1003 1003 
1003 1003 1003 1003 1003 1003 1003 1003 1003 
1003 1003 1003 1003 1003 1003 1003 1003 1003 
1003 1003 1003 1003 1003 1003 1003 1003 1003 
1003 1003 1003 1003 1003 1003 1003 1003 1003 
1003 1003 1003 1003 1003 1003 1003 1003 1003 
1003 1003 1003 1003 1003 1003 1003 1003 1003 
1003 1003 1003 1003 1003 1003 1003 1003 1003 
1003 1003 1003 1003 1003 1003 1003 1003 1003 
1003 1003 1003 1003 1003 1003 1003 1003 1003 
1003 1003 1003 1003 1003 1003 1003 1003 1003 
1003 1003 1003 1003 1003 1003 1003 1003 1003 
1003 1003 1003 1003 1003 1003 1003 1003 1003 
1003 1003 1003 1003 1003 1003 1003 1003 1003 
1003 1003 1003 1003 1003 1003 1003 1003 1003 
1003 1003 1003 1003 1003 1003 1003 1003 1003 
1003 1003 1003 1003 1003 1003 1003 1003 1003 
1003 1003 1003 1003 1003 1003 1003 1003 1003 
1003 1003 1003 1003 1003 1003 1003 1003 1003 
1003 1003 1003 1003 1003 1003 1003 1003 1003 
1003 1003 1003 1003 1003 1003 1003 1003 1003 
1003 1003 1003 1003 1003 1003 1003 1003 1003 
1003 1003 1003 1003 1003 1003 1003 1003 1003 
1003 1003 1003 1003 1003 1003 1003 1003 1003 
1003 1003 1003 1003 1003 1003 1003 1003 1003 
1003 1003 1003 1003 1003 1003 1003 1003 1003 
1003 1003 1003 1003 1003 1003 1003 1003 1003 
1003 1003 1003 1003 1003 1003 1003 1003 1003 
1003 1003 1003 1003 1003 1003 1003 1003 1003 
1003 1003 1003 1003 1003 1003 1003 1003 1003 
1003 1003 1003 1003 1003 1003 1003 1003 1003 
1003 1003 1003 1003 1003 1003 1003 1003 1003 
1003 1003 1003 1003 1003 1003 1003 1003 1003 
1003 1003 1003 1003 1003 1003 1003 1003 1003 
1003 1003 1003 1003 1003 1003 1003 1003 1003 
1003 1003 1003 1003 1003 1003 1003 1003 1003 
1003 1003 1003 1003 1003 1003 1003 1003 1003 
1003 1003 1003 1003 1003 1003 1003 1003 1003 
1003 1003 1003 1003 1003 1003 1003 1003 1003 
1003 1003 1003 1003 1003 1003 1003 1003 1003 
1003 1003 1003 1003 1003 1003 1003 1003 1003 
1003 1003 1003 1003 1003 1003 1003 1003 1003 
1003 1003 1003 1003 1003 1003 1003 1003 1003 
1003 1003 1003 1003 1003 1003 1003 1003 1003 
1003 1003 1003 1003 1003 1003 1003 1003 1003 
1003 1003 1003 1003 1003 1003 1003 1003 1003 
1003 1003 1003 1003 1003 1003 1003 1003 1003 
1003 1003 1003 1003 1003 1003 1003 1003 1003 
1003 1003 1003 1003 1003 1003 1003 1003 1003 
1003 1003 1003 1003 1003 1003 1003 1003 1003 
1003 1003 1003 1003 1003 1003 1003 1003 1003 
1003 1003 1003 1003 1003 1003 1003 1003 1003 
1003 1003 1003 1003 1003 1003 1003 1003 1003 
1003 1003 1003 1003 1003 1003 1003 1003 1003 
1003 1003 1003 1003 1003 1003 1003 1003 1003 
1003 1003 1003 1003 1003 1003 1003 1003 1003 
1003 1003 1003 1003 1003 1003 1003 1003 1003 
1003 1003 1003 1003 1003 1003 1003 1003 1003 
1003 1003 1003 1003 1003 1003 1003 1003 1003 
1003 1003 1003 1003 1003 1003 1003 1003 1003 
1003 1003 1003 1003 1003 1003 1003 1003 1003 
1003 1003 1003 1003 1003 1003 1003 1003 1003 
1003 1003 1003 1003 1003 1003 1003 1003 1003 
1003 1003 1003 1003 1003 1003 1003 1003 1003 
1003 1003 1003 1003 1003 1003 1003 1003 1003 
1003 1003 1003 1003 1003 1003 1003 1003 1003 
1003 1003 1003 1003 1003 1003 1003 1003 1003 
1003 1003 1003 1003 1003 1003 1003 1003 1003 
1003 1003 1003 1003 1003 1003 1003 1003 1003 
1003 1003 1003 1003 1003 1003 1003 1003 1003 
1003 1003 1003 1003 1003 1003 1003 1003 1003 
1003 1003 1003 1003 1003 1003 1003 1003 1003 
1003 1003 1003 1003 1003 1003 1003 1003 1003 
1003 1003 1003 1003 1003 1003 1003 1003 1003 
1003 1003 1003 1003 1003 1003 1003 1003 1003 
1003 1003 1003 1003 1003 1003 1003 1003 1003 
1003 1003 1003 1003 1003 1003 1003 1003 1003 
1003 1003 1003 1003 1003 1003 1003 1003 1003 
1003 1003 1003 1003 1003 1003 1003 1003 1003 
1003 1003 1003 1003 1003 1003 1003 1003 1003 
1003 1003 1003 1003 1003 1003 1003 1003 1003 
1003 1003 1003 1003 1003 1003 1003 1003 1003 
1003 1003 1003 1003 1003 1003 1003 1003 1003 
1003 1003 1003 1003 1003 1003 1003 1003 1003 
1003 1003 1003 1003 1003 1003 1003 1003 1003 
1003 1003 1003 1003 1003 1003 1003 1003 1003 
1003 1003 1003 1003 1003 1003 1003 1003 1003 
1003 1003 1003 1003 1003 1003 1003 1003 1003 
1003 1003 1003 1003 1003 1003 1003 1003 1003 
1003 1003 1003 1003 1003 1003 1003 1003 1003 
1003 1003 1003 1003 1003 1003 1003 1003 1003 
1003 1003 1003 1003 1003 1003 1003 1003 1003 
1003 1003 1003 1003 1003 1003 1003 1003 1003 
1003 1003 1003 1003 1003 1003 1003 1003 1003 
1003 1003 1003 1003 1003 1003 1003 1003 1003 
1003 1003 1003 1003 1003 1003 1003 1003 1003 
1003 1003 1003 1003 1003 1003 1003 1003 1003 
1003 1003 1003 1003 1003 1003 1003 1003 1003 
1003 1003 1003 1003 1003 1003 1003 1003 1003 
1003 1003 1003 1003 1003 1003 1003 1003 1003 
1003 1003 1003 1003 1003 1003 1003 1003 1003 
1003 1003 1003 1003 1003 1003 1003 1003 1003 
1003 1003 1003 1003 1003 1003 1003 1003 1003 
1003 1003 1003 1003 1003 1003 1003 1003 1003 
1003 1003 1003 1003 1003 1003 1003 1003 1003 
1003 1003 1003 1003 1003 1003 1003 1003 1003 
1003 1003 1003 1003 1003 1003 1003 1003 1003 
1003 1003 1003 1003 1003 1003 1003 1003 1003 
1003 1003 1003 1003 1003 1003 1003 1003 1003 
1003 1003 1003 1003 1003 1003 1003 1003 1003 
1003 1003 1003 1003 1003 1003 1003 1003 1003 
1003 1003 1003 1003 1003 1003 1003 1003 1003 
1003 1003 1003 1003 1003 1003 1003 1003 1003 
1003 1003 1003 1003 1003 1003 1003 1003 1003 
1003 1003 1003 1003 1003 1003 1003 1003 1003 
1003 1003 1003 1003 1003 1003 1003 1003 1003 
1003 1003 1003 1003 1003 1003 1003 1003 1003 
1003 1003 1003 1003 1003 1003 1003 1003 1003 
1003 1003 1003 1003 1003 1003 1003 1003 1003 
1003 1003 1003 1003 1003 1003 1003 1003 1003 
1003 1003 1003 1003 1003 1003 1003 1003 1003 
1003 1003 1003 1003 1003 1003 1003 1003 1003 
1003 1003 1003 1003 1003 1003 1003 1003 1003 
1003 1003 1003 1003 1003 1003 1003 1003 1003 
1003 1003 1003 1003 1003 1003 1003 1003 1003 
1003 1003 1003 1003 1003 1003 1003 1003 1003 
1003 1003 1003 1003 1003 1003 1003 1003 1003 
1003 1003 1003 1003 1003 1003 1003 1003 1003 
1003 1003 1003 1003 1003 1003 1003 1003 1003 
1003 1003 1003 1003 1003 1003 1003 1003 1003 
1003 1003 1003 1003 1003 1003 1003 1003 1003 
1003 1003 1003 1003 1003 1003 1003 1003 1003 
1003 1003 1003 1003 1003 1003 1003 1003 1003 
1003 1003 1003 1003 1003 1003 1003 1003 1003 
1003 1003 1003 1003 1003 1003 1003 1003 1003 
1003 1003 1003 1003 1003 1003 1003 1003 1003 
1003 1003 1003 1003 1003 1003 1003 1003 1003 
1003 1003 1003 1003 1003 1003 1003 1003 1003 
1003 1003 1003 1003 1003 1003 1003 1003 1003 
1003 1003 1003 1003 1003 1003 1003 1003 1003 
1003 1003 1003 1003 1003 1003 1003 1003 1003 
1003 1003 1003 1003 1003 1003 1003 1003 1003 
1003 1003 1003 1003 1003 1003 1003 1003 1003 
1003 1003 1003 1003 1003 1003 1003 1003 1003 
1003 1003 1003 1003 1003 1003 1003 1003 1003 
1003 1003 1003 1003 1003 1003 1003 1003 1003 
1003 1003 1003 1003 1003 1003 1003 1003 1003 
1003 1003 1003 1003 1003 1003 1003 1003 1003 
1003 1003 1003 1003 1003 1003 1003 1003 1003 
1003 1003 1003 1003 1003 1003 1003 1003 1003 
1003 1003 1003 1003 1003 1003 1003 1003 1003 
1003 1003 1003 1003 1003 1003 1003 1003 1003 
1003 1003 1003 1003 1003 1003 1003 1003 1003 
1003 1003 1003 1003 1003 1003 1003 1003 1003 
1003 1003 1003 1003 1003 1003 1003 1003 1003 
1003 1003 1003 1003 1003 1003 1003 1003 1003 
1003 1003 1003 1003 1003 1003 1003 1003 1003 
1003 1003 1003 1003 1003 1003 1003 1003 1003 
1003 1003 1003 1003 1003 1003 1003 1003 1003 
1003 1003 1003 1003 1003 1003 1003 1003 1003 
1003 1003 1003 1003 1003 1003 1003 1003 1003 
1003 1003 1003 1003 1003 1003 1003 1003 1003 
1003 1003 1003 1003 1003 1003 1003 1003 1003 
1003 1003 1003 1003 1003 1003 1003 1003 1003 
1003 1003 1003 1003 1003 1003 1003 1003 1003 
1003 1003 1003 1003 1003 1003 1003 1003 1003 
1003 1003 1003 1003 1003 1003 1003 1003 1003 
1003 1003 1003 1003 1003 1003 1003 1003 1003 
1003 1003 1003 1003 1003 1003 1003 1003 1003 
1003 1003 1003 1003 1003 1003 1003 1003 1003 
1003 1003 1003 1003 1003 1003 1003 1003 1003 
1003 1003 1003 1003 1003 1003 1003 1003 1003 
1003 1003 1003 1003 1003 1003 1003 1003 1003 
1003 1003 1003 1003 1003 1003 1003 1003 1003 
1003 1003 1003 1003 1003 1003 1003 1003 1003 
1003 1003 1003 1003 1003 1003 1003 1003 1003 
1003 1003 1003 1003 1003 1003 1003 1003 1003 
1003 1003 1003 1003 1003 1003 1003 1003 1003 