# vtk DataFile Version 4.0
vtk output
ASCII
DATASET POLYDATA
POINTS 14726 float
35.7333 21.808 -42.0875 36.0894 21.3997 -41.4813 36.3428 21.1831 -42.1538 
34.7857 21.9513 -42.149 35.3329 21.6003 -41.481 33.74 21.9348 -42.189 
34.1604 21.4781 -41.5161 32.8032 21.8571 -42.2921 33.0866 21.4023 -41.7352 
32.4209 21.3598 -41.9642 35.9169 21.6538 -42.6071 35.6058 21.5892 -43.0219 
35.2612 21.8794 -42.7652 34.274 21.9397 -42.8839 33.0924 21.9768 -43.0311 
32.0804 21.638 -42.3629 32.0342 21.9512 -42.8987 31.0405 21.8812 -43.2563 
31.2579 21.5972 -42.5485 30.1787 21.7596 -43.1759 30.3148 21.6021 -42.6294 
29.7154 21.3514 -42.7813 35.0116 21.3918 -43.4324 33.7625 21.5754 -43.5509 
32.9297 21.6674 -43.7158 32.58 21.3964 -44.1389 32.1117 21.8576 -43.7058 
31.3777 21.6763 -43.9253 30.595 21.4268 -43.6815 29.9242 21.3139 -43.334 
31.8809 21.2111 -44.3413 35.6914 20.8394 -40.1063 36.0647 20.2663 -39.708 
36.304 20.5654 -40.2021 34.8024 20.845 -40.2848 35.347 20.3465 -39.5467 
34.5651 20.4968 -39.8531 35.942 21.0947 -40.8136 36.5885 20.5993 -41.1159 
35.0411 21.2057 -40.8565 33.9263 20.368 -40.4459 34.0638 20.9098 -40.9628 
33.383 20.3705 -40.9734 29.8569 20.8383 -41.1161 29.8022 20.265 -40.4813 
30.4599 20.3368 -41.0242 29.1694 20.7738 -41.2737 29.185 20.5453 -40.7092 
28.753 20.2976 -40.9213 36.713 20.3036 -42.2237 33.2004 20.7915 -41.3369 
31.661 21.0777 -42.0269 32.1265 20.5346 -41.5587 30.6654 21.0422 -41.862 
31.1193 20.3389 -41.556 29.793 21.1691 -41.9566 29.3365 20.6879 -42.108 
28.9024 20.1377 -41.4636 35.9802 21.1775 -42.991 36.399 20.3756 -43.1106 
29.5743 20.5526 -42.9249 35.7805 20.6994 -43.6267 35.116 20.8231 -43.9895 
35.5298 20.4879 -44.071 34.2555 21.0098 -44.0519 33.2893 21.1443 -44.0902 
31.1395 21.1671 -44.1709 30.6315 20.6574 -44.0518 30.0403 20.4091 -43.6022 
34.9817 20.3593 -44.4764 33.7566 20.5575 -44.5811 32.6961 20.5275 -44.5915 
31.8151 20.3259 -44.5813 31.149 20.4738 -44.3995 34.6662 19.7563 -38.2086 
34.9711 19.4505 -37.7062 35.4363 19.3216 -38.0571 34.5199 19.2273 -38.0895 
34.7913 20.0589 -39.0204 35.4396 19.6082 -38.9669 34.1028 19.6048 -38.5461 
34.0804 19.8689 -39.0718 33.7968 19.4788 -39.2255 36.0863 19.3306 -39.4724 
36.6449 19.8515 -40.121 34.1184 20.1576 -39.7594 33.7039 19.6001 -39.9946 
29.7735 19.7519 -40.0615 29.9728 19.4555 -39.7033 30.3562 19.5873 -40.195 
29.5212 19.1177 -39.9836 37.0229 19.8785 -40.8587 37.1459 19.3458 -40.3947 
37.3411 19.3379 -41.0678 32.6551 20.0653 -41.0863 33.1899 19.577 -40.6501 
31.8967 19.7879 -41.168 32.2983 19.2914 -40.667 31.5471 19.3608 -40.9261 
30.755 19.7213 -41.0527 29.1072 19.8622 -40.5199 28.7354 19.7311 -41.0566 
37.0401 19.9399 -41.6512 37.3554 19.1822 -42.099 31.2714 19.7134 -41.3036 
29.3107 19.5856 -42.0742 28.9919 19.3673 -41.3757 36.9762 19.6742 -42.4314 
36.7635 19.632 -43.0898 29.6175 19.4587 -42.9692 35.9613 20.1227 -43.994 
36.4777 19.6368 -43.7904 30.4809 19.775 -44.0988 29.9804 19.1882 -43.5846 
36.034 19.5046 -44.5569 35.1086 19.8695 -45.0076 35.6161 19.3592 -45.1416 
34.2558 20.0469 -45.0732 33.3329 19.9769 -45.0739 32.6904 19.6143 -44.9939 
31.9734 19.3963 -44.6958 31.1315 19.5101 -44.4411 34.8236 19.3265 -45.4049 
33.7412 19.3919 -45.4267 33.0259 19.2914 -45.3048 35.8278 18.8972 -37.1414 
36.1036 18.351 -36.7445 36.281 18.565 -37.1469 35.5633 18.2314 -37.0618 
30.9104 18.8586 -37.3132 31.218 18.5344 -36.7174 31.6818 18.6986 -37.1174 
30.5475 18.2017 -37.0356 36.0738 18.8791 -37.674 36.318 18.1583 -38.0205 
35.1223 18.8989 -37.5148 34.694 18.3587 -38.2106 31.7863 18.7786 -37.738 
32.2036 18.4076 -37.3946 32.3404 18.158 -38.1278 30.967 18.8923 -38.0978 
30.152 18.6411 -37.5466 30.1302 18.8547 -38.0504 29.7817 18.4257 -38.1459 
35.9631 18.6691 -38.3942 35.7811 18.84 -38.9257 34.033 19.2116 -38.8608 
34.3401 18.6233 -38.9807 31.6659 18.5097 -38.4272 30.9226 18.5853 -38.6628 
30.7543 18.5294 -39.1582 30.2412 18.9766 -39.0833 29.5928 18.54 -38.9315 
27.7161 18.8017 -39.0216 28.0342 18.465 -38.6594 28.4301 18.5504 -39.3485 
27.1723 18.7531 -39.2613 27.238 18.435 -38.7547 26.7786 18.5235 -39.0228 
36.8653 19.0402 -39.9187 36.637 18.3403 -39.7107 37.2487 18.5841 -40.3289 
36.1047 18.5379 -39.3452 33.9355 18.9719 -39.6913 34.3083 18.1823 -40.0947 
31.6349 18.8639 -40.2284 31.9963 18.313 -39.5736 32.3577 18.4055 -40.0089 
30.8189 18.8861 -39.8295 31.3344 18.4371 -39.4773 29.3487 18.459 -39.8322 
27.876 18.7477 -39.7173 28.4802 18.3244 -40.2073 27.4134 18.3861 -39.7985 
26.9256 18.3796 -39.3001 37.6128 18.5368 -41.2213 33.6427 18.5339 -40.549 
32.8692 18.4958 -40.4565 31.0012 19.2446 -40.7138 29.0336 19.2196 -40.857 
29.3123 18.5811 -41.0836 27.9244 18.2921 -40.2695 37.7142 18.5332 -42.2178 
29.5047 18.6492 -42.2432 37.1035 19.1679 -42.9551 37.5421 18.4544 -43.22 
29.7278 18.5018 -42.9185 36.9179 18.9942 -43.8268 37.3588 18.187 -44.2711 
30.4885 18.5968 -43.9355 30.076 18.3511 -43.391 36.809 18.6565 -44.6405 
36.2272 18.9186 -45.0169 36.6687 18.3397 -45.1188 32.4339 18.8326 -45.0643 
31.7269 18.2903 -44.7407 31.1325 18.451 -44.3846 35.9304 18.5662 -45.3969 
35.0313 18.4266 -45.699 33.9262 18.4969 -45.6718 32.9262 18.4527 -45.4156 
31.8501 17.8008 -35.9452 32.1104 17.2553 -35.705 32.3434 17.5449 -36.2054 
30.9134 18.026 -36.119 31.3538 17.3729 -35.4246 29.7101 17.8886 -36.002 
30.2659 17.5938 -35.4296 28.7041 17.8543 -36.1729 29.2761 17.4495 -35.6405 
28.6563 17.5491 -35.9437 36.194 17.4916 -36.6409 36.5257 17.582 -37.2154 
35.6455 17.3678 -36.9523 31.9322 18.1633 -36.6319 32.5002 17.5696 -37.0487 
30.0175 17.5286 -36.5432 30.4981 17.4773 -37.1069 29.3809 17.3989 -37.0368 
28.987 17.9189 -36.8834 28.2308 17.4256 -36.4581 28.0375 17.8307 -37.0476 
27.7361 17.4396 -37.231 36.4517 17.4367 -38.0083 35.0542 18.1408 -37.759 
35.3116 17.3083 -37.9071 32.5657 17.2906 -37.865 30.0722 18.1165 -37.8483 
30.4003 17.2378 -38.0202 29.0937 17.7951 -37.9186 29.4966 17.0881 -38.0054 
28.0555 18.0284 -38.0926 27.6647 17.529 -38.035 36.2016 18.1022 -39.0821 
36.3937 17.3313 -38.7931 34.912 17.6771 -38.3988 34.6642 17.5696 -39.2374 
31.9176 18.1837 -38.9731 32.4222 17.6132 -39.0035 31.2596 18.3084 -38.9384 
29.6976 17.6593 -38.5222 28.9431 18.1863 -38.9072 27.3999 17.8035 -39.1438 
26.8485 18.2397 -39.0128 37.8663 17.6868 -40.1877 37.9602 17.1637 -39.8146 
38.2977 17.5263 -40.2762 36.9973 17.9371 -40.0584 37.4141 17.3002 -39.9724 
36.6328 17.4585 -39.7239 34.5367 17.5 -40.0664 32.6222 17.4967 -39.9486 
29.0335 18.2597 -40.0572 27.7196 17.8025 -40.1125 38.0049 17.9269 -40.8142 
38.4294 17.4413 -41.0141 37.3118 17.7737 -40.3308 34.0877 17.9501 -40.937 
34.3542 17.3535 -40.864 33.6754 17.6181 -41.0725 33.0962 17.3947 -40.6275 
28.93 17.8743 -40.9688 28.2338 17.7577 -40.5377 28.3384 17.0725 -40.9688 
38.0734 18.0588 -41.7585 38.4216 17.4103 -42.0556 33.968 17.3344 -41.3048 
29.4962 17.8132 -42.0473 28.9383 17.3095 -41.6285 38.041 17.997 -42.7388 
38.3664 17.2095 -43.138 29.952 17.8655 -42.8553 30.3088 17.6448 -43.2677 
29.8565 17.1505 -42.5785 37.9823 17.7112 -43.5115 37.736 17.4299 -44.1979 
30.6637 17.4864 -43.863 37.1469 18.024 -44.9014 37.3744 17.379 -44.9086 
32.157 18.087 -45.0887 31.6489 17.5452 -44.9196 31.1063 17.3344 -44.4963 
36.8028 17.7008 -45.3369 36.0009 17.6531 -45.7322 35.14 17.8779 -45.9949 
35.6127 17.3577 -46.1188 34.3377 17.9835 -46.0259 33.571 17.7157 -45.9565 
32.8761 17.4527 -45.6963 32.1415 17.4274 -45.2973 34.8163 17.2985 -46.3558 
33.7805 17.2796 -46.3205 30.6664 16.9947 -34.9244 30.8678 16.1766 -34.6242 
31.3682 16.5969 -34.9811 29.826 16.9863 -35.093 30.1863 16.5133 -34.6742 
29.69 16.289 -34.9181 31.9842 16.3784 -35.4371 32.4489 16.7691 -36.1282 
29.3588 16.4247 -35.5834 29.1374 17.0535 -36.2214 36.8775 16.9186 -36.8356 
36.7767 16.4178 -36.4233 37.3115 16.2593 -36.7867 36.0115 16.7267 -36.5975 
35.61 16.5285 -37.1135 32.5659 16.4705 -36.9896 30.3898 16.7664 -37.1346 
29.7618 16.5379 -36.3826 28.6755 16.6887 -36.5404 29.4542 16.5176 -37.0996 
28.0461 17.013 -36.9637 28.4161 16.3214 -36.9148 37.1489 16.4144 -37.4527 
36.6581 16.6799 -38.2182 35.4579 16.3223 -37.8843 32.5369 16.4562 -38.0425 
30.4315 16.3744 -37.9244 29.706 16.3802 -38.2952 27.917 16.9977 -37.7469 
28.3099 16.3513 -37.988 36.6482 16.677 -39.2602 35.0521 17.1003 -38.8615 
35.3398 16.3022 -38.9835 32.6039 16.4912 -39.1806 30.1109 16.8241 -39.0204 
30.295 16.4047 -38.8336 29.7945 16.6625 -38.9241 27.9283 17.016 -38.7693 
28.3553 16.3594 -39.0371 38.0585 16.4179 -39.4492 38.4534 16.6522 -40.0314 
36.9016 17.0334 -39.8979 37.3211 16.6067 -39.5008 34.9642 16.6824 -39.4698 
34.6838 16.573 -40.2674 32.7374 16.7039 -40.0789 30.058 16.3921 -39.3078 
28.0415 17.1249 -39.916 28.3202 16.2819 -40.1748 38.5746 16.5513 -41.0453 
34.3713 16.3275 -41.342 33.062 16.4157 -40.4568 33.5108 16.5218 -41.1465 
28.0486 16.6471 -40.8098 27.9631 16.7993 -41.0487 27.8777 16.5783 -41.048 
38.5578 16.5361 -42.0924 34.0056 16.6219 -41.5681 29.2014 17.0698 -42.1186 
28.3821 16.3083 -41.8723 28.0363 16.6522 -41.2765 38.5485 16.3758 -42.9394 
30.3578 16.6459 -43.2159 29.8199 16.4857 -42.7411 29.1666 16.493 -42.5213 
38.1274 17.1216 -43.9389 38.3719 16.3604 -43.8621 30.6811 16.4591 -44.0974 
37.9947 16.6092 -44.4133 37.5555 16.3746 -44.9675 31.3854 16.5167 -45.1456 
30.9304 16.3705 -44.6645 36.8789 16.7638 -45.5465 36.2071 16.9036 -45.9866 
36.4931 16.124 -46.0502 33.1031 17.0859 -46.1038 32.4659 16.3697 -46.1478 
32.0368 16.5172 -45.641 35.6837 16.541 -46.3629 34.9558 16.5686 -46.5553 
34.0925 16.5337 -46.6726 33.1076 16.5257 -46.5464 31.0077 15.3208 -34.5973 
31.5474 15.705 -34.9119 30.2247 15.6306 -34.6241 29.5825 15.5201 -35.0948 
36.8724 15.7304 -36.0312 37.1083 15.269 -35.7924 37.3504 15.7015 -36.2377 
36.5711 15.136 -35.9338 32.0581 15.1844 -35.4396 32.4284 15.7279 -36.1068 
29.1291 15.3911 -35.5718 29.1627 16.084 -36.2916 28.654 15.4006 -36.09 
37.6894 15.6072 -36.9957 36.1603 15.7955 -36.4604 35.6226 15.5202 -37.1637 
32.6506 15.4768 -37.1035 30.0057 16.172 -37.091 28.4529 15.4832 -36.9614 
37.6939 15.8216 -38.034 38.1426 15.3026 -37.4593 38.3342 15.3207 -38.108 
[...]
CELL_DATA 29484
SCALARS scalars float
LOOKUP_TABLE default
2009 2009 2009 2009 2009 2009 2009 2009 2009 
2009 2009 2009 2009 2009 2009 2009 2009 2009 
2009 2009 2009 2009 2009 2009 2009 2009 2009 
2009 2009 2009 2009 2009 2009 2009 2009 2009 
2009 2009 2009 2009 2009 2009 2009 2009 2009 
2009 2009 2009 2009 2009 2009 2009 2009 2009 
2009 2009 2009 2009 2009 2009 2009 2009 2009 
2009 2009 2009 2009 2009 2009 2009 2009 2009 
2009 2009 2009 2009 2009 2009 2009 2009 2009 
2009 2009 2009 2009 2009 2009 2009 2009 2009 
2009 2009 2009 2009 2009 2009 2009 2009 2009 
2009 2009 2009 2009 2009 2009 2009 2009 2009 
2009 2009 2009 2009 2009 2009 2009 2009 2009 
2009 2009 2009 2009 2009 2009 2009 2009 2009 
2009 2009 2009 2009 2009 2009 2009 2009 2009 
2009 2009 2009 2009 2009 2009 2009 2009 2009 
2009 2009 2009 2009 2009 2009 2009 2009 2009 
2009 2009 2009 2009 2009 2009 2009 2009 2009 
2009 2009 2009 2009 2009 2009 2009 2009 2009 
2009 2009 2009 2009 2009 2009 2009 2009 2009 
2009 2009 2009 2009 2009 2009 2009 2009 2009 
2009 2009 2009 2009 2009 2009 2009 2009 2009 
2009 2009 2009 2009 2009 2009 2009 2009 2009 
2009 2009 2009 2009 2009 2009 2009 2009 2009 
2009 2009 2009 2009 2009 2009 2009 2009 2009 
2009 2009 2009 2009 2009 2009 2009 2009 2009 
2009 2009 2009 2009 2009 2009 2009 2009 2009 
2009 2009 2009 2009 2009 2009 2009 2009 2009 
2009 2009 2009 2009 2009 2009 2009 2009 2009 
2009 2009 2009 2009 2009 2009 2009 2009 2009 
2009 2009 2009 2009 2009 2009 2009 2009 2009 
2009 2009 2009 2009 2009 2009 2009 2009 2009 
2009 2009 2009 2009 2009 2009 2009 2009 2009 
2009 2009 2009 2009 2009 2009 2009 2009 2009 
2009 2009 2009 2009 2009 2009 2009 2009 2009 
2009 2009 2009 2009 2009 2009 2009 2009 2009 
2009 2009 2009 2009 2009 2009 2009 2009 2009 
2009 2009 2009 2009 2009 2009 2009 2009 2009 
2009 2009 2009 2009 2009 2009 2009 2009 2009 
2009 2009 2009 2009 2009 2009 2009 2009 2009 
2009 2009 2009 2009 2009 2009 2009 2009 2009 
2009 2009 2009 2009 2009 2009 2009 2009 2009 
2009 2009 2009 2009 2009 2009 2009 2009 2009 
2009 2009 2009 2009 2009 2009 2009 2009 2009 
2009 2009 2009 2009 2009 2009 2009 2009 2009 
2009 2009 2009 2009 2009 2009 2009 2009 2009 
2009 2009 2009 2009 2009 2009 2009 2009 2009 
2009 2009 2009 2009 2009 2009 2009 2009 2009 
2009 2009 2009 2009 2009 2009 2009 2009 2009 
2009 2009 2009 2009 2009 2009 2009 2009 2009 
2009 2009 2009 2009 2009 2009 2009 2009 2009 
2009 2009 2009 2009 2009 2009 2009 2009 2009 
2009 2009 2009 2009 2009 2009 2009 2009 2009 
2009 2009 2009 2009 2009 2009 2009 2009 2009 
2009 2009 2009 2009 2009 2009 2009 2009 2009 
2009 2009 2009 2009 2009 2009 2009 2009 2009 
2009 2009 2009 2009 2009 2009 2009 2009 2009 
2009 2009 2009 2009 2009 2009 2009 2009 2009 
2009 2009 2009 2009 2009 2009 2009 2009 2009 
2009 2009 2009 2009 2009 2009 2009 2009 2009 
2009 2009 2009 2009 2009 2009 2009 2009 2009 
2009 2009 2009 2009 2009 2009 2009 2009 2009 
2009 2009 2009 2009 2009 2009 2009 2009 2009 
2009 2009 2009 2009 2009 2009 2009 2009 2009 
2009 2009 2009 2009 2009 2009 2009 2009 2009 
2009 2009 2009 2009 2009 2009 2009 2009 2009 
2009 2009 2009 2009 2009 2009 2009 2009 2009 
2009 2009 2009 2009 2009 2009 2009 2009 2009 
2009 2009 2009 2009 2009 2009 2009 2009 2009 
2009 2009 2009 2009 2009 2009 2009 2009 2009 
2009 2009 2009 2009 2009 2009 2009 2009 2009 
2009 2009 2009 2009 2009 2009 2009 2009 2009 
2009 2009 2009 2009 2009 2009 2009 2009 2009 
2009 2009 2009 2009 2009 2009 2009 2009 2009 
2009 2009 2009 2009 2009 2009 2009 2009 2009 
2009 2009 2009 2009 2009 2009 2009 2009 2009 
2009 2009 2009 2009 2009 2009 2009 2009 2009 
2009 2009 2009 2009 2009 2009 2009 2009 2009 
2009 2009 2009 2009 2009 2009 2009 2009 2009 
2009 2009 2009 2009 2009 2009 2009 2009 2009 
2009 2009 2009 2009 2009 2009 2009 2009 2009 
2009 2009 2009 2009 2009 2009 2009 2009 2009 
2009 2009 2009 2009 2009 2009 2009 2009 2009 
2009 2009 2009 2009 2009 2009 2009 2009 2009 
2009 2009 2009 2009 2009 2009 2009 2009 2009 
2009 2009 2009 2009 2009 2009 2009 2009 2009 
2009 2009 2009 2009 2009 2009 2009 2009 2009 
2009 2009 2009 2009 2009 2009 2009 2009 2009 
2009 2009 2009 2009 2009 2009 2009 2009 2009 
2009 2009 2009 2009 2009 2009 2009 2009 2009 
2009 2009 2009 2009 2009 2009 2009 2009 2009 
2009 2009 2009 2009 2009 2009 2009 2009 2009 
2009 2009 2009 2009 2009 2009 2009 2009 2009 
2009 2009 2009 2009 2009 2009 2009 2009 2009 
2009 2009 2009 2009 2009 2009 2009 2009 2009 
2009 2009 2009 2009 2009 2009 2009 2009 2009 
2009 2009 2009 2009 2009 2009 2009 2009 2009 
2009 2009 2009 2009 2009 2009 2009 2009 2009 
2009 2009 2009 2009 2009 2009 2009 2009 2009 
2009 2009 2009 2009 2009 2009 2009 2009 2009 
2009 2009 2009 2009 2009 2009 2009 2009 2009 
2009 2009 2009 2009 2009 2009 2009 2009 2009 
2009 2009 2009 2009 2009 2009 2009 2009 2009 
2009 2009 2009 2009 2009 2009 2009 2009 2009 
2009 2009 2009 2009 2009 2009 2009 2009 2009 
2009 2009 2009 2009 2009 2009 2009 2009 2009 
2009 2009 2009 2009 2009 2009 2009 2009 2009 
2009 2009 2009 2009 2009 2009 2009 2009 2009 
2009 2009 2009 2009 2009 2009 2009 2009 2009 
2009 2009 2009 2009 2009 2009 2009 2009 2009 
2009 2009 2009 2009 2009 2009 2009 2009 2009 
2009 2009 2009 2009 2009 2009 2009 2009 2009 
2009 2009 2009 2009 2009 2009 2009 2009 2009 
2009 2009 2009 2009 2009 2009 2009 2009 2009 
2009 2009 2009 2009 2009 2009 2009 2009 2009 
2009 2009 2009 2009 2009 2009 2009 2009 2009 
2009 2009 2009 2009 2009 2009 2009 2009 2009 
2009 2009 2009 2009 2009 2009 2009 2009 2009 
2009 2009 2009 2009 2009 2009 2009 2009 2009 
2009 2009 2009 2009 2009 2009 2009 2009 2009 
2009 2009 2009 2009 2009 2009 2009 2009 2009 
2009 2009 2009 2009 2009 2009 2009 2009 2009 
2009 2009 2009 2009 2009 2009 2009 2009 2009 
2009 2009 2009 2009 2009 2009 2009 2009 2009 
2009 2009 2009 2009 2009 2009 2009 2009 2009 
2009 2009 2009 2009 2009 2009 2009 2009 2009 
2009 2009 2009 2009 2009 2009 2009 2009 2009 
2009 2009 2009 2009 2009 2009 2009 2009 2009 
2009 2009 2009 2009 2009 2009 2009 2009 2009 
2009 2009 2009 2009 2009 2009 2009 2009 2009 
2009 2009 2009 2009 2009 2009 2009 2009 2009 
2009 2009 2009 2009 2009 2009 2009 2009 2009 
2009 2009 2009 2009 2009 2009 2009 2009 2009 
2009 2009 2009 2009 2009 2009 2009 2009 2009 
2009 2009 2009 2009 2009 2009 2009 2009 2009 
2009 2009 2009 2009 2009 2009 2009 2009 2009 
2009 2009 2009 2009 2009 2009 2009 2009 2009 
2009 2009 2009 2009 2009 2009 2009 2009 2009 
2009 2009 2009 2009 2009 2009 2009 2009 2009 
2009 2009 2009 2009 2009 2009 2009 2009 2009 
2009 2009 2009 2009 2009 2009 2009 2009 2009 
2009 2009 2009 2009 2009 2009 2009 2009 2009 
2009 2009 2009 2009 2009 2009 2009 2009 2009 
2009 2009 2009 2009 2009 2009 2009 2009 2009 
2009 2009 2009 2009 2009 2009 2009 2009 2009 
2009 2009 2009 2009 2009 2009 2009 2009 2009 
2009 2009 2009 2009 2009 2009 2009 2009 2009 
2009 2009 2009 2009 2009 2009 2009 2009 2009 
2009 2009 2009 2009 2009 2009 2009 2009 2009 
2009 2009 2009 2009 2009 2009 2009 2009 2009 
2009 2009 2009 2009 2009 2009 2009 2009 2009 
2009 2009 2009 2009 2009 2009 2009 2009 2009 
2009 2009 2009 2009 2009 2009 2009 2009 2009 
2009 2009 2009 2009 2009 2009 2009 2009 2009 
2009 2009 2009 2009 2009 2009 2009 2009 2009 
2009 2009 2009 2009 2009 2009 2009 2009 2009 
2009 2009 2009 2009 2009 2009 2009 2009 2009 
2009 2009 2009 2009 2009 2009 2009 2009 2009 
2009 2009 2009 2009 2009 2009 2009 2009 2009 
2009 2009 2009 2009 2009 2009 2009 2009 2009 
2009 2009 2009 2009 2009 2009 2009 2009 2009 
2009 2009 2009 2009 2009 2009 2009 2009 2009 
2009 2009 2009 2009 2009 2009 2009 2009 2009 
2009 2009 2009 2009 2009 2009 2009 2009 2009 
2009 2009 2009 2009 2009 2009 2009 2009 2009 
2009 2009 2009 2009 2009 2009 2009 2009 2009 
2009 2009 2009 2009 2009 2009 2009 2009 2009 
2009 2009 2009 2009 2009 2009 2009 2009 2009 
2009 2009 2009 2009 2009 2009 2009 2009 2009 
2009 2009 2009 2009 2009 2009 2009 2009 2009 
2009 2009 2009 2009 2009 2009 2009 2009 2009 
2009 2009 2009 2009 2009 2009 2009 2009 2009 
2009 2009 2009 2009 2009 2009 2009 2009 2009 
2009 2009 2009 2009 2009 2009 2009 2009 2009 
2009 2009 2009 2009 2009 2009 2009 2009 2009 
2009 2009 2009 2009 2009 2009 2009 2009 2009 
2009 2009 2009 2009 2009 2009 2009 2009 2009 
2009 2009 2009 2009 2009 2009 2009 2009 2009 
2009 2009 2009 2009 2009 2009 2009 2009 2009 
2009 2009 2009 2009 2009 2009 2009 2009 2009 
2009 2009 2009 2009 2009 2009 2009 2009 2009 
2009 2009 2009 2009 2009 2009 2009 2009 2009 
2009 2009 2009 2009 2009 2009 2009 2009 2009 
2009 2009 2009 2009 2009 2009 2009 2009 2009 
2009 2009 2009 2009 2009 2009 2009 2009 2009 
2009 2009 2009 2009 2009 2009 2009 2009 2009 
2009 2009 2009 2009 2009 2009 2009 2009 2009 
2009 2009 2009 2009 2009 2009 2009 2009 2009 
2009 2009 2009 2009 2009 2009 2009 2009 2009 
2009 2009 2009 2009 2009 2009 2009 2009 2009 
2009 2009 2009 2009 2009 2009 2009 2009 2009 
2009 2009 2009 2009 2009 2009 2009 2009 2009 
2009 2009 2009 2009 2009 2009 2009 2009 2009 
2009 2009 2009 2009 2009 2009 2009 2009 2009 
2009 2009 2009 2009 2009 2009 2009 2009 2009 
2009 2009 2009 2009 2009 2009 2009 2009 2009 
2009 2009 2009 2009 2009 2009 2009 2009 2009 
2009 2009 2009 2009 2009 2009 2009 2009 2009 
2009 2009 2009 2009 2009 2009 2009 2009 2009 
2009 2009 2009 2009 2009 2009 2009 2009 2009 
2009 2009 2009 2009 2009 2009 2009 2009 2009 
2009 2009 2009 2009 2009 2009 2009 2009 2009 
2009 2009 2009 2009 2009 2009 2009 2009 2009 
2009 2009 2009 2009 2009 2009 2009 2009 2009 
2009 2009 2009 2009 2009 2009 2009 2009 2009 
2009 2009 2009 2009 2009 2009 2009 2009 2009 
2009 2009 2009 2009 2009 2009 2009 2009 2009 
2009 2009 2009 2009 2009 2009 2009 2009 2009 
2009 2009 2009 2009 2009 2009 2009 2009 2009 
2009 2009 2009 2009 2009 2009 2009 2009 2009 
2009 2009 2009 2009 2009 2009 2009 2009 2009 
2009 2009 2009 2009 2009 2009 2009 2009 2009 
2009 2009 2009 2009 2009 2009 2009 2009 2009 
2009 2009 2009 2009 2009 2009 2009 2009 2009 
2009 2009 2009 2009 2009 2009 2009 2009 2009 
2009 2009 2009 2009 2009 2009 2009 2009 2009 
2009 2009 2009 2009 2009 2009 2009 2009 2009 
2009 2009 2009 2009 2009 2009 2009 2009 2009 
2009 2009 2009 2009 2009 2009 2009 2009 2009 
2009 2009 2009 2009 2009 2009 2009 2009 2009 
2009 2009 2009 2009 2009 2009 2009 2009 2009 
2009 2009 2009 2009 2009 2009 2009 2009 2009 
2009 2009 2009 2009 2009 2009 2009 2009 2009 
2009 2009 2009 2009 2009 2009 2009 2009 2009 
2009 2009 2009 2009 2009 2009 2009 2009 2009 
2009 2009 2009 2009 2009 2009 2009 2009 2009 
2009 2009 2009 2009 2009 2009 2009 2009 2009 
2009 2009 2009 2009 2009 2009 2009 2009 2009 
2009 2009 2009 2009 2009 2009 2009 2009 2009 
2009 2009 2009 2009 2009 2009 2009 2009 2009 
2009 2009 2009 2009 2009 2009 2009 2009 2009 
2009 2009 2009 2009 2009 2009 2009 2009 2009 
2009 2009 2009 2009 2009 2009 2009 2009 2009 
2009 2009 2009 2009 2009 2009 2009 2009 2009 
2009 2009 2009 2009 2009 2009 2009 2009 2009 
2009 2009 2009 2009 2009 2009 2009 2009 2009 
2009 2009 2009 2009 2009 2009 2009 2009 2009 
2009 2009 2009 2009 2009 2009 2009 2009 2009 
2009 2009 2009 2009 2009 2009 2009 2009 2009 
2009 2009 2009 2009 2009 2009 2009 2009 2009 
2009 2009 2009 2009 2009 2009 2009 2009 2009 
2009 2009 2009 2009 2009 2009 2009 2009 2009 
2009 2009 2009 2009 2009 2009 2009 2009 2009 
2009 2009 2009 2009 2009 2009 2009 2009 2009 
2009 2009 2009 2009 2009 2009 2009 2009 2009 
2009 2009 2009 2009 2009 2009 2009 2009 2009 
2009 2009 2009 2009 2009 2009 2009 2009 2009 
2009 2009 2009 2009 2009 2009 2009 2009 2009 
2009 2009 2009 2009 2009 2009 2009 2009 2009 
2009 2009 2009 2009 2009 2009 2009 2009 2009 
2009 2009 2009 2009 2009 2009 2009 2009 2009 
2009 2009 2009 2009 2009 2009 2009 2009 2009 
2009 2009 2009 2009 2009 2009 2009 2009 2009 
2009 2009 2009 2009 2009 2009 2009 2009 2009 
2009 2009 2009 2009 2009 2009 2009 2009 2009 
2009 2009 2009 2009 2009 2009 2009 2009 2009 
2009 2009 2009 2009 2009 2009 2009 2009 2009 
2009 2009 2009 2009 2009 2009 2009 2009 2009 
2009 2009 2009 2009 2009 2009 2009 2009 2009 
2009 2009 2009 2009 2009 2009 2009 2009 2009 
2009 2009 2009 2009 2009 2009 2009 2009 2009 
2009 2009 2009 2009 2009 2009 2009 2009 2009 
2009 2009 2009 2009 2009 2009 2009 2009 2009 
2009 2009 2009 2009 2009 2009 2009 2009 2009 
2009 2009 2009 2009 2009 2009 2009 2009 2009 
2009 2009 2009 2009 2009 2009 2009 2009 2009 
2009 2009 2009 2009 2009 2009 2009 2009 2009 
2009 2009 2009 2009 2009 2009 2009 2009 2009 
2009 2009 2009 2009 2009 2009 2009 2009 2009 
2009 2009 2009 2009 2009 2009 2009 2009 2009 
2009 2009 2009 2009 2009 2009 2009 2009 2009 
2009 2009 2009 2009 2009 2009 2009 2009 2009 
2009 2009 2009 2009 2009 2009 2009 2009 2009 
2009 2009 2009 2009 2009 2009 2009 2009 2009 
2009 2009 2009 2009 2009 2009 2009 2009 2009 
2009 2009 2009 2009 2009 2009 2009 2009 2009 
2009 2009 2009 2009 2009 2009 2009 2009 2009 
2009 2009 2009 2009 2009 2009 2009 2009 2009 
2009 2009 2009 2009 2009 2009 2009 2009 2009 
2009 2009 2009 2009 2009 2009 2009 2009 2009 
2009 2009 2009 2009 2009 2009 2009 2009 2009 
2009 2009 2009 2009 2009 2009 2009 2009 2009 
2009 2009 2009 2009 2009 2009 2009 2009 2009 
2009 2009 2009 2009 2009 2009 2009 2009 2009 
2009 2009 2009 2009 2009 2009 2009 2009 2009 
2009 2009 2009 2009 2009 2009 2009 2009 2009 
2009 2009 2009 2009 2009 2009 2009 2009 2009 
2009 2009 2009 2009 2009 2009 2009 2009 2009 
2009 2009 2009 2009 2009 2009 2009 2009 2009 
2009 2009 2009 2009 2009 2009 2009 2009 2009 
2009 2009 2009 2009 2009 2009 2009 2009 2009 
2009 2009 2009 2009 2009 2009 2009 2009 2009 
2009 2009 2009 2009 2009 2009 2009 2009 2009 
2009 2009 2009 2009 2009 2009 2009 2009 2009 
2009 2009 2009 2009 2009 2009 2009 2009 2009 
2009 2009 2009 2009 2009 2009 2009 2009 2009 
2009 2009 2009 2009 2009 2009 2009 2009 2009 
2009 2009 2009 2009 2009 2009 2009 2009 2009 
2009 2009 2009 2009 2009 2009 2009 2009 2009 
2009 2009 2009 2009 2009 2009 2009 2009 2009 
2009 2009 2009 2009 2009 2009 2009 2009 2009 
2009 2009 2009 2009 2009 2009 2009 2009 2009 
2009 2009 2009 2009 2009 2009 2009 2009 2009 
2009 2009 2009 2009 2009 2009 2009 2009 2009 
2009 2009 2009 2009 2009 2009 2009 2009 2009 
2009 2009 2009 2009 2009 2009 2009 2009 2009 
2009 2009 2009 2009 2009 2009 2009 2009 2009 
2009 2009 2009 2009 2009 2009 2009 2009 2009 
2009 2009 2009 2009 2009 2009 2009 2009 2009 
2009 2009 2009 2009 2009 2009 2009 2009 2009 
2009 2009 2009 2009 2009 2009 2009 2009 2009 
2009 2009 2009 2009 2009 2009 2009 2009 2009 
2009 2009 2009 2009 2009 2009 2009 2009 2009 
2009 2009 2009 2009 2009 2009 2009 2009 2009 
2009 2009 2009 2009 2009 2009 2009 2009 2009 
2009 2009 2009 2009 2009 2009 2009 2009 2009 
2009 2009 2009 2009 2009 2009 2009 2009 2009 
2009 2009 2009 2009 2009 2009 2009 2009 2009 
2009 2009 2009 2009 2009 2009 2009 2009 2009 
2009 2009 2009 2009 2009 2009 2009 2009 2009 
2009 2009 2009 2009 2009 2009 2009 2009 2009 
2009 2009 2009 2009 2009 2009 2009 2009 2009 
2009 2009 2009 2009 2009 2009 2009 2009 2009 
2009 2009 2009 2009 2009 2009 2009 2009 2009 
2009 2009 2009 2009 2009 2009 2009 2009 2009 
2009 2009 2009 2009 2009 2009 2009 2009 2009 
2009 2009 2009 2009 2009 2009 2009 2009 2009 
2009 2009 2009 2009 2009 2009 2009 2009 2009 
2009 2009 2009 2009 2009 2009 2009 2009 2009 
2009 2009 2009 2009 2009 2009 2009 2009 2009 
2009 2009 2009 2009 2009 2009 2009 2009 2009 
2009 2009 2009 2009 2009 2009 2009 2009 2009 
2009 2009 2009 2009 2009 2009 2009 2009 2009 
2009 2009 2009 2009 2009 2009 2009 2009 2009 
2009 2009 2009 2009 2009 2009 2009 2009 2009 
2009 2009 2009 2009 2009 2009 2009 2009 2009 
2009 2009 2009 2009 2009 2009 2009 2009 2009 
2009 2009 2009 2009 2009 2009 2009 2009 2009 
2009 2009 2009 2009 2009 2009 2009 2009 2009 
2009 2009 2009 2009 2009 2009 2009 2009 2009 
2009 2009 2009 2009 2009 2009 2009 2009 2009 
2009 2009 2009 2009 2009 2009 2009 2009 2009 
2009 2009 2009 2009 2009 2009 2009 2009 2009 
2009 2009 2009 2009 2009 2009 2009 2009 2009 
2009 2009 2009 2009 2009 2009 2009 2009 2009 
2009 2009 2009 2009 2009 2009 2009 2009 2009 
2009 2009 2009 2009 2009 2009 2009 2009 2009 
2009 2009 2009 2009 2009 2009 2009 2009 2009 
2009 2009 2009 2009 2009 2009 2009 2009 2009 
2009 2009 2009 2009 2009 2009 2009 2009 2009 
2009 2009 2009 2009 2009 2009 2009 2009 2009 
2009 2009 2009 2009 2009 2009 2009 2009 2009 
2009 2009 2009 2009 2009 2009 2009 2009 2009 
2009 2009 2009 2009 2009 2009 2009 2009 2009 
2009 2009 2009 2009 2009 2009 2009 2009 2009 
2009 2009 2009 2009 2009 2009 2009 2009 2009 
2009 2009 2009 2009 2009 2009 2009 2009 2009 
2009 2009 2009 2009 2009 2009 2009 2009 2009 
2009 2009 2009 2009 2009 2009 2009 2009 2009 
2009 2009 2009 2009 2009 2009 2009 2009 2009 
2009 2009 2009 2009 2009 2009 2009 2009 2009 
2009 2009 2009 2009 2009 2009 2009 2009 2009 
2009 2009 2009 2009 2009 2009 2009 2009 2009 
2009 2009 2009 2009 2009 2009 2009 2009 2009 
2009 2009 2009 2009 2009 2009 2009 2009 2009 
2009 2009 2009 2009 2009 2009 2009 2009 2009 
2009 2009 2009 2009 2009 2009 2009 2009 2009 
2009 2009 2009 2009 2009 2009 2009 2009 2009 
2009 2009 2009 2009 2009 2009 2009 2009 2009 
2009 2009 2009 2009 2009 2009 2009 2009 2009 
2009 2009 2009 2009 2009 2009 2009 2009 2009 
2009 2009 2009 2009 2009 2009 2009 2009 2009 
2009 2009 2009 2009 2009 2009 2009 2009 2009 
2009 2009 2009 2009 2009 2009 2009 2009 2009 
2009 2009 2009 2009 2009 2009 2009 2009 2009 
2009 2009 2009 2009 2009 2009 2009 2009 2009 
2009 2009 2009 2009 2009 2009 2009 2009 2009 
2009 2009 2009 2009 2009 2009 2009 2009 2009 
2009 2009 2009 2009 2009 2009 2009 2009 2009 
2009 2009 2009 2009 2009 2009 2009 2009 2009 
2009 2009 2009 2009 2009 2009 2009 2009 2009 
2009 2009 2009 2009 2009 2009 2009 2009 2009 
2009 2009 2009 2009 2009 2009 2009 2009 2009 
2009 2009 2009 2009 2009 2009 2009 2009 2009 
2009 2009 2009 2009 2009 2009 2009 2009 2009 
2009 2009 2009 2009 2009 2009 2009 2009 2009 
2009 2009 2009 2009 2009 2009 2009 2009 2009 
2009 2009 2009 2009 2009 2009 2009 2009 2009 
2009 2009 2009 2009 2009 2009 2009 2009 2009 
2009 2009 2009 2009 2009 2009 2009 2009 2009 
2009 2009 2009 2009 2009 2009 2009 2009 2009 
2009 2009 2009 2009 2009 2009 2009 2009 2009 
2009 2009 2009 2009 2009 2009 2009 2009 2009 
2009 2009 2009 2009 2009 2009 2009 2009 2009 
2009 2009 2009 2009 2009 2009 2009 2009 2009 
2009 2009 2009 2009 2009 2009 2009 2009 2009 
2009 2009 2009 2009 2009 2009 2009 2009 2009 
2009 2009 2009 2009 2009 2009 2009 2009 2009 
2009 2009 2009 2009 2009 2009 2009 2009 2009 
2009 2009 2009 2009 2009 2009 2009 2009 2009 
2009 2009 2009 2009 2009 2009 2009 2009 2009 
2009 2009 2009 2009 2009 2009 2009 2009 2009 
2009 2009 2009 2009 2009 2009 2009 2009 2009 
2009 2009 2009 2009 2009 2009 2009 2009 2009 
2009 2009 2009 2009 2009 2009 2009 2009 2009 
2009 2009 2009 2009 2009 2009 2009 2009 2009 
2009 2009 2009 2009 2009 2009 2009 2009 2009 
2009 2009 2009 2009 2009 2009 2009 2009 2009 
2009 2009 2009 2009 2009 2009 2009 2009 2009 
2009 2009 2009 2009 2009 2009 2009 2009 2009 
2009 2009 2009 2009 2009 2009 2009 2009 2009 
2009 2009 2009 2009 2009 2009 2009 2009 2009 
2009 2009 2009 2009 2009 2009 2009 2009 2009 
2009 2009 2009 2009 2009 2009 2009 2009 2009 
2009 2009 2009 2009 2009 2009 2009 2009 2009 
2009 2009 2009 2009 2009 2009 2009 2009 2009 
2009 2009 2009 2009 2009 2009 2009 2009 2009 
2009 2009 2009 2009 2009 2009 2009 2009 2009 
2009 2009 2009 2009 2009 2009 2009 2009 2009 
2009 2009 2009 2009 2009 2009 2009 2009 2009 
2009 2009 2009 2009 2009 2009 2009 2009 2009 
2009 2009 2009 2009 2009 2009 2009 2009 2009 
2009 2009 2009 2009 2009 2009 2009 2009 2009 
2009 2009 2009 2009 2009 2009 2009 2009 2009 
2009 2009 2009 2009 2009 2009 2009 2009 2009 
2009 2009 2009 2009 2009 2009 2009 2009 2009 
2009 2009 2009 2009 2009 2009 2009 2009 2009 
2009 2009 2009 2009 2009 2009 2009 2009 2009 
2009 2009 2009 2009 2009 2009 2009 2009 2009 
2009 2009 2009 2009 2009 2009 2009 2009 2009 
2009 2009 2009 2009 2009 2009 2009 2009 2009 
2009 2009 2009 2009 2009 2009 2009 2009 2009 
2009 2009 2009 2009 2009 2009 2009 2009 2009 