# vtk DataFile Version 4.0
vtk output
ASCII
DATASET POLYDATA
POINTS 4490 float
39.029 63.66 -7.05723 38.9689 63.3049 -6.61644 39.281 63.5263 -7.1948 
38.5107 63.2001 -7.14755 38.9695 63.4276 -7.48076 36.9967 63.6656 -10.0527 
36.9307 63.3023 -9.67144 37.2712 63.582 -10.0492 36.6042 63.4109 -9.96348 
34.7444 63.761 -9.90754 35.084 63.2272 -9.66581 35.2179 63.4888 -10.1475 
34.2233 63.8025 -10.0413 34.2799 63.571 -9.70952 33.5145 63.2775 -9.99792 
37.1036 63.3585 -10.3145 34.6497 63.6042 -10.4078 33.9972 63.4394 -10.503 
39.8662 62.8121 -5.21207 40.234 62.2691 -4.75621 40.4452 62.5532 -5.27528 
39.4966 62.2876 -5.13504 39.9979 62.9394 -5.80127 40.5273 62.571 -6.22278 
39.337 62.9451 -5.85081 39.0247 62.4714 -5.57693 38.5364 62.5273 -5.88111 
39.7735 63.0879 -6.87567 40.5267 62.5531 -7.27169 37.986 62.7976 -7.00973 
38.1572 62.7982 -6.57095 37.6769 62.4443 -6.84587 39.8999 62.8434 -8.00062 
40.4515 62.5256 -7.94295 39.0178 63.0739 -8.05811 38.4283 62.8182 -7.8615 
37.8851 62.5551 -7.39898 40.1273 62.4281 -8.53674 39.5315 62.5223 -9.07605 
39.0663 62.8626 -8.95612 38.0668 62.6027 -8.42037 38.0214 62.8837 -8.95067 
37.2284 62.9245 -9.23018 37.0737 62.2724 -8.55363 36.4804 62.5035 -9.04432 
32.8865 62.8323 -9.33786 32.935 62.4595 -8.88454 33.1897 62.3819 -9.03856 
32.6914 62.3634 -9.05344 39.1094 62.4286 -9.55775 38.5067 62.5634 -10.0568 
37.9035 63.0698 -9.80222 35.9981 63.2204 -10.2933 36.0119 62.8726 -9.5113 
35.1497 62.5101 -9.30073 33.9821 62.6555 -9.35238 32.7975 63.105 -9.91387 
32.1924 62.3686 -9.51727 32.1913 62.7948 -9.94512 31.6951 62.2533 -9.97654 
37.9914 62.564 -10.528 36.8201 62.9378 -11.0134 37.5092 62.5357 -11.0505 
35.8315 63.0712 -11.2161 35.1866 63.2322 -10.8545 34.3231 63.0282 -11.191 
33.4355 62.543 -11.0665 32.6494 62.5097 -10.5214 31.8635 62.2918 -10.303 
37.1282 62.424 -11.5525 36.5962 62.3608 -12.1358 36.1677 62.8272 -11.8099 
35.1485 62.8717 -11.8083 34.3837 62.6041 -11.9092 33.8787 62.3869 -11.6715 
35.7686 62.3027 -12.4 34.7231 62.2743 -12.3652 40.8484 62.0503 -4.94586 
40.7706 61.6927 -4.55882 41.3995 61.4878 -5.14479 39.9755 61.3861 -4.47483 
39.3277 61.4047 -4.94384 37.8995 61.8191 -5.30085 37.9832 61.4641 -4.694 
38.417 61.4395 -4.7976 37.3826 61.2313 -5.14995 41.0294 62.0427 -5.71108 
41.5602 61.5293 -6.25973 38.8681 61.8401 -5.25941 37.6716 62.2201 -6.1821 
37.0832 61.5921 -5.56205 37.0445 61.8093 -6.07303 36.7317 61.469 -6.19182 
41.061 62.0287 -6.75359 41.5502 61.3524 -7.32948 37.1608 61.9877 -7.15105 
36.6679 61.3134 -7.07201 40.9208 62.022 -7.81049 41.3586 61.2229 -8.25867 
37.6267 62.2636 -7.98485 37.0325 61.9619 -7.9455 36.5037 61.4648 -7.97447 
40.7963 61.6981 -8.60552 40.0277 62.0142 -9.07325 40.6308 61.353 -9.102 
35.6491 62.0611 -8.98373 35.9465 61.5361 -8.56962 34.7444 61.9526 -9.00187 
35.1482 61.462 -8.67867 33.9272 61.835 -9.07168 34.349 61.2917 -8.59136 
32.9512 62.1944 -8.93411 33.5668 61.4149 -8.83474 39.9203 61.4635 -9.54333 
38.9864 62.0085 -10.0436 39.4463 61.1639 -10.0115 32.9882 61.8999 -9.20579 
32.042 61.5052 -9.72935 31.6663 61.7143 -10.1607 38.7402 61.629 -10.5127 
37.9972 62.0312 -11.0397 38.4582 61.1612 -11.1881 32.9072 62.0209 -11.09 
32.555 61.3149 -11.0352 32.0551 61.564 -10.4358 37.775 61.6979 -11.5958 
37.1846 61.9479 -11.9869 37.5334 61.5342 -12.0182 34.0647 62.09 -12.1601 
33.4262 61.4805 -12.1035 32.9379 61.4886 -11.6131 36.9438 61.5333 -12.475 
35.8367 61.5721 -12.7574 34.945 61.6694 -12.7392 34.0836 61.5201 -12.602 
41.6803 60.7659 -3.06708 41.927 60.2809 -2.49468 42.2899 60.1928 -3.11063 
40.8311 60.8296 -3.25507 41.1213 60.4242 -2.66031 40.4183 60.3551 -2.93295 
41.8852 60.6306 -3.5753 41.8003 60.6147 -4.16408 41.177 61.0775 -4.05103 
40.1394 60.5701 -3.43672 40.2701 60.9263 -3.85281 39.6319 60.5574 -3.93168 
37.8247 60.9612 -4.28161 38.0283 60.3811 -3.62143 38.5773 60.5478 -4.14985 
36.8866 60.747 -4.20027 37.1978 60.3529 -3.70069 36.6729 60.4021 -4.2079 
41.8428 60.8611 -4.84236 42.1064 60.3468 -4.4568 42.2962 60.3709 -5.10524 
38.8119 61.0509 -4.74128 39.2074 60.7137 -4.45329 37.0354 60.9205 -4.7264 
36.6932 60.5899 -4.72288 42.0144 61.0249 -5.77453 42.3786 60.4058 -6.05122 
36.9909 61.2147 -5.92785 37.3508 60.5732 -6.11337 36.9898 60.6804 -5.2545 
42.0249 60.983 -6.72256 42.3384 60.2089 -7.12616 36.9472 60.965 -6.73357 
37.5007 60.3682 -7.09198 32.8612 60.8272 -7.29472 33.0963 60.3346 -6.71035 
33.5125 60.5829 -7.05355 32.5068 60.2026 -7.09083 41.9655 60.7049 -7.47541 
41.7312 60.444 -8.19138 37.0297 60.4419 -7.45549 36.4642 60.3434 -8.1169 
33.645 60.9733 -7.96793 34.0164 60.2174 -7.47436 34.3738 60.4346 -8.17839 
32.9346 61.0393 -7.99808 32.0973 60.627 -7.57273 32.2842 60.7778 -8.12229 
31.8198 60.5493 -7.99607 41.1375 61.0578 -8.87168 41.3709 60.4033 -8.90292 
35.8223 60.6492 -8.52713 35.0216 60.6575 -8.58636 32.7863 61.0557 -8.90327 
32.3718 60.3243 -8.83002 32.0073 60.3373 -8.25812 40.8038 60.6816 -9.32384 
40.1569 60.5361 -9.71856 39.6667 60.56 -10.0128 32.3458 60.6138 -9.99731 
31.8762 61.1893 -10.1066 39.2238 60.5908 -10.5133 38.7347 60.2755 -11.3159 
32.6338 60.3096 -11.052 37.937 61.1387 -11.9465 38.331 60.43 -11.9257 
32.9342 60.9623 -12.1186 32.7392 60.7083 -11.827 37.7737 60.6673 -12.5356 
37.129 60.8624 -12.9792 37.4971 60.1847 -13.0779 36.2962 61.0522 -13.0693 
35.2564 61.0583 -13.1152 34.2966 60.9461 -13.1045 33.574 60.5309 -12.8297 
33.0744 60.4682 -12.3158 36.7198 60.3863 -13.3564 35.7365 60.4251 -13.4463 
34.7099 60.3713 -13.4772 33.9704 60.2514 -13.3812 43.0233 59.6331 -0.977148 
42.9805 59.2199 -0.735643 43.284 59.2723 -1.23991 42.638 59.4339 -0.875289 
42.8888 59.4869 -1.24485 41.8069 59.2267 -1.59522 42.4589 59.4535 -2.25761 
41.8843 59.7865 -2.07371 41.4048 59.3583 -1.89641 42.5353 59.4946 -3.0419 
41.2622 59.8273 -2.25991 39.6167 60.0245 -3.12565 40.1361 59.5746 -2.45714 
38.7379 59.7729 -2.9367 39.0972 59.4683 -2.61122 37.9078 59.8818 -3.20368 
38.2475 59.3754 -2.693 37.6937 59.36 -3.15319 42.1255 60.2654 -3.8589 
42.4172 59.649 -3.97497 38.8332 60.1763 -3.63808 37.3726 59.6319 -3.99715 
36.8553 60.0907 -4.06906 42.4949 59.5528 -5.07549 37.0306 60.1214 -4.97679 
37.6044 59.5722 -5.09882 42.6415 59.5524 -6.1982 37.818 59.8723 -5.90972 
38.3985 59.372 -6.18121 38.1128 59.3375 -5.52252 42.6614 59.3303 -7.30467 
38.039 59.9436 -6.77694 38.3285 59.2463 -6.82326 32.9242 59.4285 -6.61439 
33.5658 59.8235 -6.87962 32.4126 59.4489 -6.93934 42.0897 60.1248 -7.89593 
42.3147 59.4549 -7.96525 37.7148 59.644 -7.36309 37.0119 59.6897 -7.74316 
36.7005 59.3299 -8.07837 34.0268 59.2521 -7.45033 34.3476 59.6312 -7.97951 
31.9844 60.2867 -7.8047 32.2794 59.6448 -8.02476 41.9771 59.618 -8.40918 
41.5627 59.3652 -8.9557 35.95 60.0137 -8.92163 36.3616 59.2972 -9.01895 
35.2844 59.9472 -9.06218 34.6251 59.4408 -8.84864 32.4782 59.6477 -9.20264 
40.7958 59.6067 -9.52154 40.037 59.9962 -10.0111 40.2848 59.3147 -9.94365 
35.6795 59.5205 -9.59282 35.0012 59.3287 -9.62393 32.6148 59.3955 -10.1808 
39.765 59.6708 -10.4307 39.1847 59.9299 -10.9429 39.4364 59.1641 -10.8309 
32.9169 59.7824 -10.9635 33.1389 59.5704 -11.3074 32.9168 59.3288 -10.7839 
38.9502 59.577 -11.412 38.5348 59.3711 -12.128 32.9738 60.0367 -11.7174 
33.2541 59.5456 -12.2403 38.0587 59.8494 -12.6488 37.7373 59.4365 -13.1621 
33.6146 59.6516 -13.096 37.0457 59.3754 -13.4487 36.0122 59.5263 -13.5594 
34.97 59.519 -13.593 34.0835 59.4936 -13.4641 42.7894 58.3935 -0.589026 
43.314 58.7314 -1.02656 42.3201 59.1872 -1.26093 42.2976 58.8272 -0.591916 
41.6377 58.6019 -0.908724 42.9882 59.1044 -1.75261 43.3087 58.5669 -1.70843 
40.6739 59.0719 -1.97576 40.9827 58.6045 -1.48502 39.871 58.7828 -2.07546 
40.2165 58.4461 -1.76876 39.5595 58.0927 -2.15516 42.9807 58.641 -2.28388 
42.6301 58.5163 -2.89531 38.954 58.8049 -2.5161 38.0593 58.9558 -2.93917 
38.4956 58.4836 -3.31432 42.4971 58.5018 -4.03701 37.8875 58.9508 -3.70023 
38.5048 58.4707 -4.30638 42.6912 58.6349 -5.06467 37.9673 59.0569 -4.70715 
38.5772 58.505 -5.39697 42.973 58.8902 -5.93877 43.0977 58.3641 -5.40064 
43.3443 58.3705 -6.07194 38.469 58.5199 -6.22033 43.0505 58.9612 -6.74582 
43.3607 58.1884 -6.89414 38.0126 58.3937 -6.66868 37.9006 58.9078 -7.11364 
37.4681 58.3071 -6.95796 32.9051 58.2477 -6.56569 33.5372 58.6409 -7.02086 
31.8507 58.9929 -7.30962 32.1278 58.5733 -6.58527 31.3746 58.4089 -6.88077 
42.9946 58.6129 -7.4373 42.5332 58.4161 -7.99694 37.2016 58.8362 -7.48754 
36.6232 58.4028 -7.94002 33.9576 58.3844 -7.64633 34.3085 58.6414 -8.2583 
31.9951 58.9427 -8.10522 31.125 58.6338 -7.39457 31.3393 58.7606 -7.93046 
30.6488 58.3246 -7.80938 42.0254 58.7652 -8.58985 41.5177 58.2195 -9.06256 
36.3967 58.3149 -8.85966 34.4552 58.4956 -9.03782 32.399 58.7741 -8.97524 
31.8034 58.282 -8.49508 31.0046 58.3061 -8.26951 40.8971 58.4494 -9.39677 
40.1386 58.5176 -9.68318 39.9445 59.0196 -10.1698 39.5052 58.4456 -10.1429 
36.0051 59.0609 -10.0054 36.2604 58.6117 -9.81856 35.3074 58.9426 -10.1856 
34.6511 58.5167 -9.76213 32.5347 58.3103 -9.83829 39.2236 58.4825 -10.7905 
35.6941 58.4819 -10.4134 35.0036 58.2449 -10.4105 32.9844 59.0647 -11.3991 
32.6391 58.5167 -10.7199 38.9905 58.8364 -11.4741 38.6433 58.3146 -11.8866 
33.0449 58.8341 -12.1312 32.7937 58.339 -11.6872 38.1284 59.0992 -12.9398 
38.3535 58.299 -12.8697 33.3177 58.5167 -12.7743 32.9902 58.5019 -12.3133 
37.6948 58.5781 -13.4029 37.0162 58.5315 -13.5599 36.0866 58.3761 -13.6553 
34.9707 58.4866 -13.5905 33.8758 58.4026 -13.4363 41.8743 57.957 -0.185868 
41.8776 57.2 0.382217 42.3286 57.3877 0.00864741 40.9772 57.7567 -0.188194 
41.1005 57.4062 0.373286 40.4917 57.3677 0.0541568 43.0723 58.0229 -1.31451 
42.6082 57.4548 -0.667473 40.9938 58.0145 -0.819415 40.3933 57.5281 -0.650413 
42.9975 58.0861 -2.12669 42.6815 57.397 -1.91446 40.196 57.8115 -1.4397 
39.5718 57.2509 -1.88145 42.5165 57.4076 -3.03079 39.0449 58.1198 -2.90566 
39.324 57.4019 -2.85647 42.6038 57.4026 -4.139 39.0173 57.9806 -3.76468 
39.2857 57.5002 -4.05361 42.9377 57.9097 -4.81848 42.9316 57.3241 -4.71313 
43.2631 57.7513 -5.25676 39.0576 57.9229 -4.73981 39.2618 57.4353 -4.83342 
[...]
CELL_DATA 8988
SCALARS scalars float
LOOKUP_TABLE default
2019 2019 2019 2019 2019 2019 2019 2019 2019 
2019 2019 2019 2019 2019 2019 2019 2019 2019 
2019 2019 2019 2019 2019 2019 2019 2019 2019 
2019 2019 2019 2019 2019 2019 2019 2019 2019 
2019 2019 2019 2019 2019 2019 2019 2019 2019 
2019 2019 2019 2019 2019 2019 2019 2019 2019 
2019 2019 2019 2019 2019 2019 2019 2019 2019 
2019 2019 2019 2019 2019 2019 2019 2019 2019 
2019 2019 2019 2019 2019 2019 2019 2019 2019 
2019 2019 2019 2019 2019 2019 2019 2019 2019 
2019 2019 2019 2019 2019 2019 2019 2019 2019 
2019 2019 2019 2019 2019 2019 2019 2019 2019 
2019 2019 2019 2019 2019 2019 2019 2019 2019 
2019 2019 2019 2019 2019 2019 2019 2019 2019 
2019 2019 2019 2019 2019 2019 2019 2019 2019 
2019 2019 2019 2019 2019 2019 2019 2019 2019 
2019 2019 2019 2019 2019 2019 2019 2019 2019 
2019 2019 2019 2019 2019 2019 2019 2019 2019 
2019 2019 2019 2019 2019 2019 2019 2019 2019 
2019 2019 2019 2019 2019 2019 2019 2019 2019 
2019 2019 2019 2019 2019 2019 2019 2019 2019 
2019 2019 2019 2019 2019 2019 2019 2019 2019 
2019 2019 2019 2019 2019 2019 2019 2019 2019 
2019 2019 2019 2019 2019 2019 2019 2019 2019 
2019 2019 2019 2019 2019 2019 2019 2019 2019 
2019 2019 2019 2019 2019 2019 2019 2019 2019 
2019 2019 2019 2019 2019 2019 2019 2019 2019 
2019 2019 2019 2019 2019 2019 2019 2019 2019 
2019 2019 2019 2019 2019 2019 2019 2019 2019 
2019 2019 2019 2019 2019 2019 2019 2019 2019 
2019 2019 2019 2019 2019 2019 2019 2019 2019 
2019 2019 2019 2019 2019 2019 2019 2019 2019 
2019 2019 2019 2019 2019 2019 2019 2019 2019 
2019 2019 2019 2019 2019 2019 2019 2019 2019 
2019 2019 2019 2019 2019 2019 2019 2019 2019 
2019 2019 2019 2019 2019 2019 2019 2019 2019 
2019 2019 2019 2019 2019 2019 2019 2019 2019 
2019 2019 2019 2019 2019 2019 2019 2019 2019 
2019 2019 2019 2019 2019 2019 2019 2019 2019 
2019 2019 2019 2019 2019 2019 2019 2019 2019 
2019 2019 2019 2019 2019 2019 2019 2019 2019 
2019 2019 2019 2019 2019 2019 2019 2019 2019 
2019 2019 2019 2019 2019 2019 2019 2019 2019 
2019 2019 2019 2019 2019 2019 2019 2019 2019 
2019 2019 2019 2019 2019 2019 2019 2019 2019 
2019 2019 2019 2019 2019 2019 2019 2019 2019 
2019 2019 2019 2019 2019 2019 2019 2019 2019 
2019 2019 2019 2019 2019 2019 2019 2019 2019 
2019 2019 2019 2019 2019 2019 2019 2019 2019 
2019 2019 2019 2019 2019 2019 2019 2019 2019 
2019 2019 2019 2019 2019 2019 2019 2019 2019 
2019 2019 2019 2019 2019 2019 2019 2019 2019 
2019 2019 2019 2019 2019 2019 2019 2019 2019 
2019 2019 2019 2019 2019 2019 2019 2019 2019 
2019 2019 2019 2019 2019 2019 2019 2019 2019 
2019 2019 2019 2019 2019 2019 2019 2019 2019 
2019 2019 2019 2019 2019 2019 2019 2019 2019 
2019 2019 2019 2019 2019 2019 2019 2019 2019 
2019 2019 2019 2019 2019 2019 2019 2019 2019 
2019 2019 2019 2019 2019 2019 2019 2019 2019 
2019 2019 2019 2019 2019 2019 2019 2019 2019 
2019 2019 2019 2019 2019 2019 2019 2019 2019 
2019 2019 2019 2019 2019 2019 2019 2019 2019 
2019 2019 2019 2019 2019 2019 2019 2019 2019 
2019 2019 2019 2019 2019 2019 2019 2019 2019 
2019 2019 2019 2019 2019 2019 2019 2019 2019 
2019 2019 2019 2019 2019 2019 2019 2019 2019 
2019 2019 2019 2019 2019 2019 2019 2019 2019 
2019 2019 2019 2019 2019 2019 2019 2019 2019 
2019 2019 2019 2019 2019 2019 2019 2019 2019 
2019 2019 2019 2019 2019 2019 2019 2019 2019 
2019 2019 2019 2019 2019 2019 2019 2019 2019 
2019 2019 2019 2019 2019 2019 2019 2019 2019 
2019 2019 2019 2019 2019 2019 2019 2019 2019 
2019 2019 2019 2019 2019 2019 2019 2019 2019 
2019 2019 2019 2019 2019 2019 2019 2019 2019 
2019 2019 2019 2019 2019 2019 2019 2019 2019 
2019 2019 2019 2019 2019 2019 2019 2019 2019 
2019 2019 2019 2019 2019 2019 2019 2019 2019 
2019 2019 2019 2019 2019 2019 2019 2019 2019 
2019 2019 2019 2019 2019 2019 2019 2019 2019 
2019 2019 2019 2019 2019 2019 2019 2019 2019 
2019 2019 2019 2019 2019 2019 2019 2019 2019 
2019 2019 2019 2019 2019 2019 2019 2019 2019 
2019 2019 2019 2019 2019 2019 2019 2019 2019 
2019 2019 2019 2019 2019 2019 2019 2019 2019 
2019 2019 2019 2019 2019 2019 2019 2019 2019 
2019 2019 2019 2019 2019 2019 2019 2019 2019 
2019 2019 2019 2019 2019 2019 2019 2019 2019 
2019 2019 2019 2019 2019 2019 2019 2019 2019 
2019 2019 2019 2019 2019 2019 2019 2019 2019 
2019 2019 2019 2019 2019 2019 2019 2019 2019 
2019 2019 2019 2019 2019 2019 2019 2019 2019 
2019 2019 2019 2019 2019 2019 2019 2019 2019 
2019 2019 2019 2019 2019 2019 2019 2019 2019 
2019 2019 2019 2019 2019 2019 2019 2019 2019 
2019 2019 2019 2019 2019 2019 2019 2019 2019 
2019 2019 2019 2019 2019 2019 2019 2019 2019 
2019 2019 2019 2019 2019 2019 2019 2019 2019 
2019 2019 2019 2019 2019 2019 2019 2019 2019 
2019 2019 2019 2019 2019 2019 2019 2019 2019 
2019 2019 2019 2019 2019 2019 2019 2019 2019 
2019 2019 2019 2019 2019 2019 2019 2019 2019 
2019 2019 2019 2019 2019 2019 2019 2019 2019 
2019 2019 2019 2019 2019 2019 2019 2019 2019 
2019 2019 2019 2019 2019 2019 2019 2019 2019 
2019 2019 2019 2019 2019 2019 2019 2019 2019 
2019 2019 2019 2019 2019 2019 2019 2019 2019 
2019 2019 2019 2019 2019 2019 2019 2019 2019 
2019 2019 2019 2019 2019 2019 2019 2019 2019 
2019 2019 2019 2019 2019 2019 2019 2019 2019 
2019 2019 2019 2019 2019 2019 2019 2019 2019 
2019 2019 2019 2019 2019 2019 2019 2019 2019 
2019 2019 2019 2019 2019 2019 2019 2019 2019 
2019 2019 2019 2019 2019 2019 2019 2019 2019 
2019 2019 2019 2019 2019 2019 2019 2019 2019 
2019 2019 2019 2019 2019 2019 2019 2019 2019 
2019 2019 2019 2019 2019 2019 2019 2019 2019 
2019 2019 2019 2019 2019 2019 2019 2019 2019 
2019 2019 2019 2019 2019 2019 2019 2019 2019 
2019 2019 2019 2019 2019 2019 2019 2019 2019 
2019 2019 2019 2019 2019 2019 2019 2019 2019 
2019 2019 2019 2019 2019 2019 2019 2019 2019 
2019 2019 2019 2019 2019 2019 2019 2019 2019 
2019 2019 2019 2019 2019 2019 2019 2019 2019 
2019 2019 2019 2019 2019 2019 2019 2019 2019 
2019 2019 2019 2019 2019 2019 2019 2019 2019 
2019 2019 2019 2019 2019 2019 2019 2019 2019 
2019 2019 2019 2019 2019 2019 2019 2019 2019 
2019 2019 2019 2019 2019 2019 2019 2019 2019 
2019 2019 2019 2019 2019 2019 2019 2019 2019 
2019 2019 2019 2019 2019 2019 2019 2019 2019 
2019 2019 2019 2019 2019 2019 2019 2019 2019 
2019 2019 2019 2019 2019 2019 2019 2019 2019 
2019 2019 2019 2019 2019 2019 2019 2019 2019 
2019 2019 2019 2019 2019 2019 2019 2019 2019 
2019 2019 2019 2019 2019 2019 2019 2019 2019 
2019 2019 2019 2019 2019 2019 2019 2019 2019 
2019 2019 2019 2019 2019 2019 2019 2019 2019 
2019 2019 2019 2019 2019 2019 2019 2019 2019 
2019 2019 2019 2019 2019 2019 2019 2019 2019 
2019 2019 2019 2019 2019 2019 2019 2019 2019 
2019 2019 2019 2019 2019 2019 2019 2019 2019 
2019 2019 2019 2019 2019 2019 2019 2019 2019 
2019 2019 2019 2019 2019 2019 2019 2019 2019 
2019 2019 2019 2019 2019 2019 2019 2019 2019 
2019 2019 2019 2019 2019 2019 2019 2019 2019 
2019 2019 2019 2019 2019 2019 2019 2019 2019 
2019 2019 2019 2019 2019 2019 2019 2019 2019 
2019 2019 2019 2019 2019 2019 2019 2019 2019 
2019 2019 2019 2019 2019 2019 2019 2019 2019 
2019 2019 2019 2019 2019 2019 2019 2019 2019 
2019 2019 2019 2019 2019 2019 2019 2019 2019 
2019 2019 2019 2019 2019 2019 2019 2019 2019 
2019 2019 2019 2019 2019 2019 2019 2019 2019 
2019 2019 2019 2019 2019 2019 2019 2019 2019 
2019 2019 2019 2019 2019 2019 2019 2019 2019 
2019 2019 2019 2019 2019 2019 2019 2019 2019 
2019 2019 2019 2019 2019 2019 2019 2019 2019 
2019 2019 2019 2019 2019 2019 2019 2019 2019 
2019 2019 2019 2019 2019 2019 2019 2019 2019 
2019 2019 2019 2019 2019 2019 2019 2019 2019 
2019 2019 2019 2019 2019 2019 2019 2019 2019 
2019 2019 2019 2019 2019 2019 2019 2019 2019 
2019 2019 2019 2019 2019 2019 2019 2019 2019 
2019 2019 2019 2019 2019 2019 2019 2019 2019 
2019 2019 2019 2019 2019 2019 2019 2019 2019 
2019 2019 2019 2019 2019 2019 2019 2019 2019 
2019 2019 2019 2019 2019 2019 2019 2019 2019 
2019 2019 2019 2019 2019 2019 2019 2019 2019 
2019 2019 2019 2019 2019 2019 2019 2019 2019 
2019 2019 2019 2019 2019 2019 2019 2019 2019 
2019 2019 2019 2019 2019 2019 2019 2019 2019 
2019 2019 2019 2019 2019 2019 2019 2019 2019 
2019 2019 2019 2019 2019 2019 2019 2019 2019 
2019 2019 2019 2019 2019 2019 2019 2019 2019 
2019 2019 2019 2019 2019 2019 2019 2019 2019 
2019 2019 2019 2019 2019 2019 2019 2019 2019 
2019 2019 2019 2019 2019 2019 2019 2019 2019 
2019 2019 2019 2019 2019 2019 2019 2019 2019 
2019 2019 2019 2019 2019 2019 2019 2019 2019 
2019 2019 2019 2019 2019 2019 2019 2019 2019 
2019 2019 2019 2019 2019 2019 2019 2019 2019 
2019 2019 2019 2019 2019 2019 2019 2019 2019 
2019 2019 2019 2019 2019 2019 2019 2019 2019 
2019 2019 2019 2019 2019 2019 2019 2019 2019 
2019 2019 2019 2019 2019 2019 2019 2019 2019 
2019 2019 2019 2019 2019 2019 2019 2019 2019 
2019 2019 2019 2019 2019 2019 2019 2019 2019 
2019 2019 2019 2019 2019 2019 2019 2019 2019 
2019 2019 2019 2019 2019 2019 2019 2019 2019 
2019 2019 2019 2019 2019 2019 2019 2019 2019 
2019 2019 2019 2019 2019 2019 2019 2019 2019 
2019 2019 2019 2019 2019 2019 2019 2019 2019 
2019 2019 2019 2019 2019 2019 2019 2019 2019 
2019 2019 2019 2019 2019 2019 2019 2019 2019 
2019 2019 2019 2019 2019 2019 2019 2019 2019 
2019 2019 2019 2019 2019 2019 2019 2019 2019 
2019 2019 2019 2019 2019 2019 2019 2019 2019 
2019 2019 2019 2019 2019 2019 2019 2019 2019 
2019 2019 2019 2019 2019 2019 2019 2019 2019 
2019 2019 2019 2019 2019 2019 2019 2019 2019 
2019 2019 2019 2019 2019 2019 2019 2019 2019 
2019 2019 2019 2019 2019 2019 2019 2019 2019 
2019 2019 2019 2019 2019 2019 2019 2019 2019 
2019 2019 2019 2019 2019 2019 2019 2019 2019 
2019 2019 2019 2019 2019 2019 2019 2019 2019 
2019 2019 2019 2019 2019 2019 2019 2019 2019 
2019 2019 2019 2019 2019 2019 2019 2019 2019 
2019 2019 2019 2019 2019 2019 2019 2019 2019 
2019 2019 2019 2019 2019 2019 2019 2019 2019 
2019 2019 2019 2019 2019 2019 2019 2019 2019 
2019 2019 2019 2019 2019 2019 2019 2019 2019 
2019 2019 2019 2019 2019 2019 2019 2019 2019 
2019 2019 2019 2019 2019 2019 2019 2019 2019 
2019 2019 2019 2019 2019 2019 2019 2019 2019 
2019 2019 2019 2019 2019 2019 2019 2019 2019 
2019 2019 2019 2019 2019 2019 2019 2019 2019 
2019 2019 2019 2019 2019 2019 2019 2019 2019 
2019 2019 2019 2019 2019 2019 2019 2019 2019 
2019 2019 2019 2019 2019 2019 2019 2019 2019 
2019 2019 2019 2019 2019 2019 2019 2019 2019 
2019 2019 2019 2019 2019 2019 2019 2019 2019 
2019 2019 2019 2019 2019 2019 2019 2019 2019 
2019 2019 2019 2019 2019 2019 2019 2019 2019 
2019 2019 2019 2019 2019 2019 2019 2019 2019 
2019 2019 2019 2019 2019 2019 2019 2019 2019 
2019 2019 2019 2019 2019 2019 2019 2019 2019 
2019 2019 2019 2019 2019 2019 2019 2019 2019 
2019 2019 2019 2019 2019 2019 2019 2019 2019 
2019 2019 2019 2019 2019 2019 2019 2019 2019 
2019 2019 2019 2019 2019 2019 2019 2019 2019 
2019 2019 2019 2019 2019 2019 2019 2019 2019 
2019 2019 2019 2019 2019 2019 2019 2019 2019 
2019 2019 2019 2019 2019 2019 2019 2019 2019 
2019 2019 2019 2019 2019 2019 2019 2019 2019 
2019 2019 2019 2019 2019 2019 2019 2019 2019 
2019 2019 2019 2019 2019 2019 2019 2019 2019 
2019 2019 2019 2019 2019 2019 2019 2019 2019 
2019 2019 2019 2019 2019 2019 2019 2019 2019 
2019 2019 2019 2019 2019 2019 2019 2019 2019 
2019 2019 2019 2019 2019 2019 2019 2019 2019 
2019 2019 2019 2019 2019 2019 2019 2019 2019 
2019 2019 2019 2019 2019 2019 2019 2019 2019 
2019 2019 2019 2019 2019 2019 2019 2019 2019 
2019 2019 2019 2019 2019 2019 2019 2019 2019 
2019 2019 2019 2019 2019 2019 2019 2019 2019 
2019 2019 2019 2019 2019 2019 2019 2019 2019 
2019 2019 2019 2019 2019 2019 2019 2019 2019 
2019 2019 2019 2019 2019 2019 2019 2019 2019 
2019 2019 2019 2019 2019 2019 2019 2019 2019 
2019 2019 2019 2019 2019 2019 2019 2019 2019 
2019 2019 2019 2019 2019 2019 2019 2019 2019 
2019 2019 2019 2019 2019 2019 2019 2019 2019 
2019 2019 2019 2019 2019 2019 2019 2019 2019 
2019 2019 2019 2019 2019 2019 2019 2019 2019 
2019 2019 2019 2019 2019 2019 2019 2019 2019 
2019 2019 2019 2019 2019 2019 2019 2019 2019 
2019 2019 2019 2019 2019 2019 2019 2019 2019 
2019 2019 2019 2019 2019 2019 2019 2019 2019 
2019 2019 2019 2019 2019 2019 2019 2019 2019 
2019 2019 2019 2019 2019 2019 2019 2019 2019 
2019 2019 2019 2019 2019 2019 2019 2019 2019 
2019 2019 2019 2019 2019 2019 2019 2019 2019 
2019 2019 2019 2019 2019 2019 2019 2019 2019 
2019 2019 2019 2019 2019 2019 2019 2019 2019 
2019 2019 2019 2019 2019 2019 2019 2019 2019 
2019 2019 2019 2019 2019 2019 2019 2019 2019 
2019 2019 2019 2019 2019 2019 2019 2019 2019 
2019 2019 2019 2019 2019 2019 2019 2019 2019 
2019 2019 2019 2019 2019 2019 2019 2019 2019 
2019 2019 2019 2019 2019 2019 2019 2019 2019 
2019 2019 2019 2019 2019 2019 2019 2019 2019 
2019 2019 2019 2019 2019 2019 2019 2019 2019 
2019 2019 2019 2019 2019 2019 2019 2019 2019 
2019 2019 2019 2019 2019 2019 2019 2019 2019 
2019 2019 2019 2019 2019 2019 2019 2019 2019 
2019 2019 2019 2019 2019 2019 2019 2019 2019 
2019 2019 2019 2019 2019 2019 2019 2019 2019 
2019 2019 2019 2019 2019 2019 2019 2019 2019 
2019 2019 2019 2019 2019 2019 2019 2019 2019 
2019 2019 2019 2019 2019 2019 2019 2019 2019 
2019 2019 2019 2019 2019 2019 2019 2019 2019 
2019 2019 2019 2019 2019 2019 2019 2019 2019 
2019 2019 2019 2019 2019 2019 2019 2019 2019 
2019 2019 2019 2019 2019 2019 2019 2019 2019 
2019 2019 2019 2019 2019 2019 2019 2019 2019 
2019 2019 2019 2019 2019 2019 2019 2019 2019 
2019 2019 2019 2019 2019 2019 2019 2019 2019 
2019 2019 2019 2019 2019 2019 2019 2019 2019 
2019 2019 2019 2019 2019 2019 2019 2019 2019 
2019 2019 2019 2019 2019 2019 2019 2019 2019 
2019 2019 2019 2019 2019 2019 2019 2019 2019 
2019 2019 2019 2019 2019 2019 2019 2019 2019 
2019 2019 2019 2019 2019 2019 2019 2019 2019 
2019 2019 2019 2019 2019 2019 2019 2019 2019 
2019 2019 2019 2019 2019 2019 2019 2019 2019 
2019 2019 2019 2019 2019 2019 2019 2019 2019 
2019 2019 2019 2019 2019 2019 2019 2019 2019 
2019 2019 2019 2019 2019 2019 2019 2019 2019 
2019 2019 2019 2019 2019 2019 2019 2019 2019 
2019 2019 2019 2019 2019 2019 2019 2019 2019 
2019 2019 2019 2019 2019 2019 2019 2019 2019 
2019 2019 2019 2019 2019 2019 2019 2019 2019 
2019 2019 2019 2019 2019 2019 2019 2019 2019 
2019 2019 2019 2019 2019 2019 2019 2019 2019 
2019 2019 2019 2019 2019 2019 2019 2019 2019 
2019 2019 2019 2019 2019 2019 2019 2019 2019 
2019 2019 2019 2019 2019 2019 2019 2019 2019 
2019 2019 2019 2019 2019 2019 2019 2019 2019 
2019 2019 2019 2019 2019 2019 2019 2019 2019 
2019 2019 2019 2019 2019 2019 2019 2019 2019 
2019 2019 2019 2019 2019 2019 2019 2019 2019 
2019 2019 2019 2019 2019 2019 2019 2019 2019 
2019 2019 2019 2019 2019 2019 2019 2019 2019 
2019 2019 2019 2019 2019 2019 2019 2019 2019 
2019 2019 2019 2019 2019 2019 2019 2019 2019 
2019 2019 2019 2019 2019 2019 2019 2019 2019 
2019 2019 2019 2019 2019 2019 2019 2019 2019 
2019 2019 2019 2019 2019 2019 2019 2019 2019 
2019 2019 2019 2019 2019 2019 2019 2019 2019 
2019 2019 2019 2019 2019 2019 2019 2019 2019 
2019 2019 2019 2019 2019 2019 2019 2019 2019 
2019 2019 2019 2019 2019 2019 2019 2019 2019 
2019 2019 2019 2019 2019 2019 2019 2019 2019 
2019 2019 2019 2019 2019 2019 2019 2019 2019 
2019 2019 2019 2019 2019 2019 2019 2019 2019 
2019 2019 2019 2019 2019 2019 2019 2019 2019 
2019 2019 2019 2019 2019 2019 2019 2019 2019 
2019 2019 2019 2019 2019 2019 2019 2019 2019 
2019 2019 2019 2019 2019 2019 2019 2019 2019 
2019 2019 2019 2019 2019 2019 2019 2019 2019 
2019 2019 2019 2019 2019 2019 2019 2019 2019 
2019 2019 2019 2019 2019 2019 2019 2019 2019 
2019 2019 2019 2019 2019 2019 2019 2019 2019 
2019 2019 2019 2019 2019 2019 2019 2019 2019 
2019 2019 2019 2019 2019 2019 2019 2019 2019 
2019 2019 2019 2019 2019 2019 2019 2019 2019 
2019 2019 2019 2019 2019 2019 2019 2019 2019 
2019 2019 2019 2019 2019 2019 2019 2019 2019 
2019 2019 2019 2019 2019 2019 2019 2019 2019 
2019 2019 2019 2019 2019 2019 2019 2019 2019 
2019 2019 2019 2019 2019 2019 2019 2019 2019 
2019 2019 2019 2019 2019 2019 2019 2019 2019 
2019 2019 2019 2019 2019 2019 2019 2019 2019 
2019 2019 2019 2019 2019 2019 2019 2019 2019 
2019 2019 2019 2019 2019 2019 2019 2019 2019 
2019 2019 2019 2019 2019 2019 2019 2019 2019 
2019 2019 2019 2019 2019 2019 2019 2019 2019 
2019 2019 2019 2019 2019 2019 2019 2019 2019 
2019 2019 2019 2019 2019 2019 2019 2019 2019 
2019 2019 2019 2019 2019 2019 2019 2019 2019 
2019 2019 2019 2019 2019 2019 2019 2019 2019 
2019 2019 2019 2019 2019 2019 2019 2019 2019 
2019 2019 2019 2019 2019 2019 2019 2019 2019 
2019 2019 2019 2019 2019 2019 2019 2019 2019 
2019 2019 2019 2019 2019 2019 2019 2019 2019 
2019 2019 2019 2019 2019 2019 2019 2019 2019 
2019 2019 2019 2019 2019 2019 2019 2019 2019 
2019 2019 2019 2019 2019 2019 2019 2019 2019 
2019 2019 2019 2019 2019 2019 2019 2019 2019 
2019 2019 2019 2019 2019 2019 2019 2019 2019 
2019 2019 2019 2019 2019 2019 2019 2019 2019 
2019 2019 2019 2019 2019 2019 2019 2019 2019 
2019 2019 2019 2019 2019 2019 2019 2019 2019 
2019 2019 2019 2019 2019 2019 2019 2019 2019 
2019 2019 2019 2019 2019 2019 2019 2019 2019 
2019 2019 2019 2019 2019 2019 2019 2019 2019 
2019 2019 2019 2019 2019 2019 2019 2019 2019 
2019 2019 2019 2019 2019 2019 2019 2019 2019 
2019 2019 2019 2019 2019 2019 2019 2019 2019 
2019 2019 2019 2019 2019 2019 2019 2019 2019 
2019 2019 2019 2019 2019 2019 2019 2019 2019 
2019 2019 2019 2019 2019 2019 2019 2019 2019 
2019 2019 2019 2019 2019 2019 2019 2019 2019 
2019 2019 2019 2019 2019 2019 2019 2019 2019 
2019 2019 2019 2019 2019 2019 2019 2019 2019 
2019 2019 2019 2019 2019 2019 2019 2019 2019 
2019 2019 2019 2019 2019 2019 2019 2019 2019 
2019 2019 2019 2019 2019 2019 2019 2019 2019 
2019 2019 2019 2019 2019 2019 2019 2019 2019 
2019 2019 2019 2019 2019 2019 2019 2019 2019 
2019 2019 2019 2019 2019 2019 2019 2019 2019 
2019 2019 2019 2019 2019 2019 2019 2019 2019 
2019 2019 2019 2019 2019 2019 2019 2019 2019 
2019 2019 2019 2019 2019 2019 2019 2019 2019 
2019 2019 2019 2019 2019 2019 2019 2019 2019 
2019 2019 2019 2019 2019 2019 2019 2019 2019 
2019 2019 2019 2019 2019 2019 2019 2019 2019 
2019 2019 2019 2019 2019 2019 2019 2019 2019 
2019 2019 2019 2019 2019 2019 2019 2019 2019 
2019 2019 2019 2019 2019 2019 2019 2019 2019 
2019 2019 2019 2019 2019 2019 2019 2019 2019 
2019 2019 2019 2019 2019 2019 2019 2019 2019 
2019 2019 2019 2019 2019 2019 2019 2019 2019 
2019 2019 2019 2019 2019 2019 2019 2019 2019 
2019 2019 2019 2019 2019 2019 2019 2019 2019 
2019 2019 2019 2019 2019 2019 2019 2019 2019 
2019 2019 2019 2019 2019 2019 2019 2019 2019 
2019 2019 2019 2019 2019 2019 2019 2019 2019 
2019 2019 2019 2019 2019 2019 2019 2019 2019 
2019 2019 2019 2019 2019 2019 2019 2019 2019 
2019 2019 2019 2019 2019 2019 2019 2019 2019 
2019 2019 2019 2019 2019 2019 2019 2019 2019 
2019 2019 2019 2019 2019 2019 2019 2019 2019 
2019 2019 2019 2019 2019 2019 2019 2019 2019 
2019 2019 2019 2019 2019 2019 2019 2019 2019 
2019 2019 2019 2019 2019 2019 2019 2019 2019 
2019 2019 2019 2019 2019 2019 2019 2019 2019 
2019 2019 2019 2019 2019 2019 2019 2019 2019 
2019 2019 2019 2019 2019 2019 2019 2019 2019 
2019 2019 2019 2019 2019 2019 2019 2019 2019 
2019 2019 2019 2019 2019 2019 2019 2019 2019 
2019 2019 2019 2019 2019 2019 2019 2019 2019 
2019 2019 2019 2019 2019 2019 2019 2019 2019 
2019 2019 2019 2019 2019 2019 2019 2019 2019 
2019 2019 2019 2019 2019 2019 2019 2019 2019 
2019 2019 2019 2019 2019 2019 2019 2019 2019 
2019 2019 2019 2019 2019 2019 2019 2019 2019 
2019 2019 2019 2019 2019 2019 2019 2019 2019 
2019 2019 2019 2019 2019 2019 2019 2019 2019 
2019 2019 2019 2019 2019 2019 2019 2019 2019 
2019 2019 2019 2019 2019 2019 2019 2019 2019 
2019 2019 2019 2019 2019 2019 2019 2019 2019 
2019 2019 2019 2019 2019 2019 2019 2019 2019 
2019 2019 2019 2019 2019 2019 2019 2019 2019 
2019 2019 2019 2019 2019 2019 2019 2019 2019 
2019 2019 2019 2019 2019 2019 2019 2019 2019 
2019 2019 2019 2019 2019 2019 2019 2019 2019 
2019 2019 2019 2019 2019 2019 2019 2019 2019 
2019 2019 2019 2019 2019 2019 2019 2019 2019 
2019 2019 2019 2019 2019 2019 2019 2019 2019 
2019 2019 2019 2019 2019 2019 2019 2019 2019 