# vtk DataFile Version 4.0
vtk output
ASCII
DATASET POLYDATA
POINTS 16210 float
-56.2342 -22.1622 21.9606 -56.0863 -22.4073 22.3817 -55.6094 -22.4977 21.7958 
-56.7518 -22.2294 21.708 -56.6381 -22.4465 22.4419 -57.2779 -22.8207 22.1003 
-56.0957 -22.1479 21.0499 -55.4438 -22.6201 20.6185 -56.6969 -22.3372 20.9912 
-57.1173 -22.6204 21.3427 -55.8934 -22.2848 20.1485 -55.748 -22.6991 19.8554 
-56.4396 -22.4286 20.2479 -50.1369 -22.2848 19.0445 -49.8513 -22.4838 19.3459 
-49.6533 -22.4434 18.9948 -50.7142 -22.2981 18.8991 -50.6176 -22.4286 19.4202 
-51.2372 -22.487 19.144 -56.2604 -22.7188 19.648 -48.931 -22.4124 17.942 
-48.7534 -22.6981 18.3041 -48.8017 -22.7063 17.8627 -50.1665 -22.6889 18.5505 
-49.2615 -22.6783 17.9022 -51.1682 -22.7501 18.6486 -49.0042 -22.5751 17.7429 
-56.3631 -23.174 23.9013 -56.1268 -23.8328 24.3338 -55.7259 -23.5027 23.7895 
-57.1571 -23.1295 24.0139 -56.84 -23.4852 24.3851 -57.7683 -23.2332 23.7573 
-57.6595 -23.62 24.4782 -58.2774 -23.5546 24.1742 -55.934 -22.9025 22.9208 
-55.3149 -23.5599 23.0752 -57.0127 -22.9036 23.1817 -57.6965 -23.2904 22.9123 
-58.1994 -23.5228 23.5591 -55.1484 -23.1244 22.171 -54.948 -23.5403 22.444 
-54.577 -23.5545 21.7556 -57.6649 -23.6204 21.9818 -54.9477 -23.0371 21.2349 
-54.5307 -23.4705 21.0198 -57.0479 -22.8747 20.5742 -57.4131 -23.3158 21.1414 
-49.0191 -23.1673 19.906 -48.8833 -23.8239 20.3659 -48.3139 -23.4056 19.8636 
-50.0856 -22.9322 19.9165 -49.9832 -23.6393 20.4226 -51.2954 -22.9051 19.8397 
-51.0322 -23.6004 20.3993 -52.2217 -23.1554 19.6915 -51.8187 -23.4884 20.2432 
-52.4816 -23.8454 19.9513 -54.7884 -23.5395 20.5115 -55.4812 -23.3284 19.8621 
-56.8532 -22.9759 19.8602 -57.3777 -23.7307 19.9916 -48.2571 -23.1971 19.0552 
-47.9118 -23.4761 19.5304 -47.6759 -23.6059 19.184 -49.2839 -22.7357 18.9356 
-51.8341 -22.8726 19.1095 -53.0072 -23.6286 19.426 -52.6873 -23.2443 19.0064 
-53.4346 -23.6689 19.0239 -56.1674 -23.3124 19.3915 -56.8092 -23.3202 19.4507 
-46.9172 -23.3566 17.984 -46.8792 -23.6497 18.3705 -46.7351 -23.7903 18.0412 
-47.8138 -23.6248 18.5705 -47.2838 -23.689 17.9058 -48.4534 -23.3428 17.999 
-50.0522 -22.9837 17.8516 -50.5337 -23.3657 18.0225 -51.0397 -23.4183 18.2472 
-52.1216 -23.5767 18.4646 -53.2275 -23.8102 18.6544 -46.955 -23.5315 17.7881 
-49.1004 -23.1336 17.437 -49.8475 -23.0496 17.1112 -49.4711 -23.4864 16.5699 
-50.8972 -23.4589 17.6145 -50.941 -23.1832 16.7973 -52.0373 -23.2491 16.6838 
-51.9248 -23.7439 17.4622 -52.5664 -23.68 16.9178 -50.104 -23.2571 16.2066 
-49.7247 -23.5705 15.7512 -50.5062 -23.5862 15.9304 -51.1729 -23.6987 16.223 
-51.742 -23.5924 15.9424 -51.7455 -23.2337 16.158 -52.2977 -23.5544 16.2289 
-50.0986 -23.6289 15.478 -51.9906 -23.4336 15.804 -58.3738 -24.0234 24.8663 
-58.1655 -24.8228 25.3687 -57.6839 -24.3734 24.9708 -59.0458 -24.1793 24.7798 
-58.977 -24.614 25.3467 -59.5607 -24.7549 24.8817 -55.9296 -24.8298 24.4295 
-55.3987 -24.1887 23.8466 -56.9521 -24.3663 24.6652 -58.7718 -23.9556 23.8529 
-59.3797 -24.478 24.1791 -54.835 -24.0154 22.846 -54.9459 -24.484 23.4865 
-54.4387 -24.5361 23.0074 -58.1611 -23.7864 22.8831 -58.7005 -24.2138 22.7638 
-59.5152 -24.7859 23.0803 -54.1272 -24.1528 22.1063 -53.8526 -24.6695 22.5372 
-53.6279 -24.6642 21.864 -58.0502 -24.1533 22.0552 -58.521 -24.4645 22.1291 
-59.0473 -24.6666 22.3766 -54.0828 -24.0307 21.1323 -53.6264 -24.8175 21.1596 
-57.5908 -24.3339 20.9937 -58.1216 -24.5816 21.5873 -47.8629 -23.8628 19.8598 
-48.0172 -24.7008 20.3953 -47.3615 -24.3963 19.8911 -49.1669 -24.6551 20.5356 
-50.0134 -24.4966 20.5205 -51.0091 -24.5113 20.5151 -51.9875 -24.4334 20.3712 
-52.7158 -24.6399 20.0303 -54.0746 -24.583 20.3505 -54.8806 -24.04 19.6782 
-54.2903 -24.4826 19.7244 -57.347 -24.7571 20.0193 -47.2868 -23.9604 18.9488 
-46.955 -24.4876 19.5298 -46.569 -24.5704 18.7737 -53.0656 -24.318 19.6823 
-54.1444 -24.1135 19.0963 -53.7105 -24.3513 19.4776 -54.8532 -24.2142 18.959 
-55.7309 -24.0047 19.0929 -57.0195 -23.9942 19.0404 -57.796 -24.5746 19.2597 
-57.8798 -24.3076 18.8285 -58.2374 -24.479 18.8956 -46.6192 -24.7073 17.7577 
-47.9411 -23.8489 17.8925 -51.1789 -23.753 17.8924 -51.7425 -23.9172 18.0381 
-52.5173 -24.2916 17.9685 -53.1086 -24.4427 18.2386 -54.1642 -24.6133 18.4572 
-55.1534 -24.5429 18.6098 -56.172 -24.7501 18.4303 -57.2804 -24.5322 18.565 
-57.8898 -24.769 18.6751 -47.0792 -24.1552 17.4778 -47.9819 -24.0921 16.9927 
-47.4265 -24.5364 16.6338 -48.7359 -23.8018 17.108 -52.8511 -24.1485 16.7415 
-52.868 -24.2856 17.3895 -53.3174 -24.6432 17.0872 -48.1629 -24.2587 15.9753 
-47.647 -24.5851 15.8434 -49.0211 -23.9264 15.9976 -50.6916 -24.2548 15.9462 
-51.2313 -24.7077 16.263 -52.1145 -24.3181 16.2982 -52.0213 -23.7109 15.8825 
-53.2336 -24.8224 16.6138 -48.1628 -24.4251 15.2964 -48.5201 -24.6391 14.6576 
-48.8686 -24.2021 15.1213 -49.696 -24.0472 15.0554 -50.2659 -24.4381 15.2723 
-49.2709 -24.4965 14.586 -49.7488 -24.7675 14.6671 -58.1338 -25.8192 25.4176 
-57.4913 -25.2311 25.0393 -58.8467 -25.364 25.5757 -60.0197 -25.2781 24.8364 
-59.6862 -25.3889 25.2896 -60.1589 -25.5437 24.9656 -54.9006 -24.9142 23.8584 
-55.2268 -25.7106 24.3444 -54.4243 -25.5405 23.8917 -56.1842 -25.7256 24.5162 
-56.8542 -25.5025 24.6608 -59.8316 -25.4718 24.2633 -60.106 -25.5549 24.6942 
-54.0985 -25.0994 23.2616 -53.9257 -25.8775 23.46 -53.6124 -25.3325 22.6917 
-59.9872 -25.3298 23.3383 -60.0304 -25.2061 22.8844 -60.2978 -25.8441 23.0178 
-53.4479 -25.5284 21.9162 -58.9635 -24.9625 21.6379 -59.5842 -25.2445 22.1243 
-60.0357 -25.4955 22.4097 -53.3917 -25.4758 20.9295 -58.1207 -24.9511 20.8787 
-59.0882 -25.0006 20.8178 -60.0321 -25.6832 21.5556 -59.8112 -25.2395 20.9323 
-60.462 -25.7059 20.9904 -46.8874 -24.9097 19.8766 -47.0228 -25.7144 20.3799 
-46.3471 -25.4414 19.8621 -48.1497 -25.6641 20.5451 -49.0399 -25.503 20.5175 
-50.0425 -25.4884 20.4984 -50.8541 -25.3604 20.5002 -51.7486 -25.5949 20.5773 
-53.3853 -24.9512 20.0265 -52.7153 -25.4058 20.4907 -53.9523 -24.7895 19.8834 
-56.9387 -25.2706 19.9829 -56.6228 -25.5885 19.9763 -56.9784 -25.5299 20.2427 
-57.4629 -25.5761 20.0034 -58.0502 -25.281 19.9104 -58.9724 -24.9879 20.0136 
-60.0109 -25.1121 19.9488 -60.5147 -25.5008 20.3215 -46.1748 -25.2428 19.2414 
-45.8084 -25.609 19.3992 -45.7277 -25.6299 18.8134 -56.8822 -25.6409 19.6921 
-58.1418 -24.8035 18.9149 -57.6842 -25.6129 18.9063 -57.8078 -25.669 19.602 
-59.0624 -25.0538 18.9699 -58.3966 -25.6684 18.8118 -60.0255 -24.9448 18.9399 
-60.8167 -25.4341 19.576 -61.0746 -25.1797 18.8153 -61.4153 -25.5782 19.1148 
-46.0677 -25.3917 18.5313 -46.2681 -25.4047 17.874 -53.2787 -24.7918 17.6753 
-53.8659 -25.1009 17.8064 -54.4722 -25.396 17.9381 -55.0944 -25.2097 18.1989 
-55.824 -25.3173 18.0214 -55.4962 -25.7746 17.7324 -56.4141 -25.4174 17.9972 
-57.1235 -25.3855 18.2978 -58.6902 -25.6402 18.072 -59.1301 -25.211 18.0341 
-59.9982 -24.9387 17.9403 -61.0248 -24.9705 17.8745 -61.8736 -25.4607 18.5174 
-61.918 -25.2175 17.8498 -62.4006 -25.5716 18.032 -46.8981 -24.846 17.0388 
-46.482 -25.4247 16.8525 -53.7794 -25.1192 17.0807 -54.4228 -25.6001 17.2866 
-56.252 -25.8857 17.7162 -58.9258 -25.6499 17.4284 -59.5293 -25.5967 16.7923 
-59.7728 -25.2025 17.206 -60.7399 -25.1092 17.0412 -61.7085 -25.212 17.0451 
-62.4901 -25.5157 17.259 -47.0575 -24.9976 16.0458 -46.4587 -25.6848 15.6524 
-50.7598 -25.0333 15.8257 -51.342 -25.4312 16.0919 -52.0546 -25.5254 16.3688 
-53.0042 -25.4505 16.4983 -54.081 -25.6943 16.641 -60.3191 -25.5174 16.4863 
-61.3049 -25.5211 16.3977 -62.1516 -25.5892 16.5835 -47.0593 -25.1596 14.99 
-46.6692 -25.7252 14.9369 -47.7074 -24.7659 15.0967 -50.0142 -25.0563 14.9199 
-49.6867 -25.5994 14.7091 -50.3546 -25.4224 15.2183 -51.0344 -25.6306 15.6574 
-47.2173 -25.5645 14.4917 -47.6984 -25.7998 13.9629 -47.9148 -25.1723 14.2253 
-48.8784 -25.3166 14.4269 -48.3105 -25.6753 14.0659 -48.0638 -25.7636 13.7392 
-58.1304 -26.8569 25.4113 -57.482 -26.4191 24.8871 -59.1529 -26.41 25.4629 
-59.8922 -25.9053 24.9575 -59.7774 -26.5703 24.9637 -55.2254 -26.5179 24.2807 
-54.5113 -26.2502 24.0315 -56.0325 -26.4247 24.3554 -56.8731 -26.46 24.4187 
-60.0238 -26.3923 24.4258 -60.1223 -25.9046 23.7943 -60.3552 -26.6713 24.0443 
-54.1031 -26.8692 23.5403 -53.5652 -26.2797 22.8283 -60.3564 -26.8341 22.9937 
-53.2883 -26.4143 21.9114 -60.035 -25.7731 21.9273 -60.4535 -26.3767 22.0256 
-52.3534 -26.1512 20.9376 -52.0335 -26.7948 21.2023 -51.7133 -26.4742 20.8715 
-52.9918 -26.0605 21.0975 -52.6863 -26.7354 21.5184 -61.1819 -26.0732 20.6387 
-60.9447 -26.4764 21.3253 -61.6182 -26.6966 21.0414 -41.1432 -26.3003 20.08 
-40.9782 -26.4597 20.3999 -40.7173 -26.633 20.0216 -42.0112 -26.196 19.8818 
-41.6213 -26.4326 20.5009 -43.1762 -26.1054 19.84 -42.6716 -26.4256 20.4978 
-44.2378 -26.1242 19.8155 -43.8386 -26.5653 20.4663 -45.1408 -26.1506 19.9633 
-44.9422 -26.6289 20.3378 -45.8769 -25.8693 19.9201 -46.0986 -26.5566 20.3797 
-47.179 -26.6926 20.5215 -47.857 -26.3546 20.5382 -48.8815 -26.483 20.403 
-50.0542 -26.5955 20.3606 -51.0141 -26.4279 20.5893 -56.1633 -26.1552 19.9704 
-55.7403 -26.7025 19.9604 -56.0022 -26.5083 20.1096 -57.252 -25.8582 19.7165 
-56.3668 -26.3469 19.9596 -61.2374 -25.7882 19.7763 -62.0859 -26.7023 20.5892 
-62.0813 -26.183 19.8256 -62.5821 -26.6915 20.0322 -38.9722 -26.34 18.9778 
-39.0082 -26.4174 19.2349 -38.7629 -26.5354 19.1065 -39.2226 -26.542 19.0926 
-41.2666 -26.5107 19.5491 -41.9951 -26.4273 19.3071 -42.5302 -26.6075 18.8191 
-42.7492 -26.2067 19.2378 -43.8657 -26.1243 18.9775 -45.105 -25.9217 19.1039 
-56.0088 -26.5157 19.8315 -57.8747 -25.9504 19.1406 -62.1279 -25.83 18.8922 
-63.0562 -26.6891 19.5553 -63.0593 -26.1891 18.843 -63.5924 -26.6531 19.0381 
-38.8609 -26.7321 18.7139 -43.3032 -26.5334 18.5394 -44.0916 -26.4814 18.2722 
-44.6231 -26.6373 17.7597 -44.9447 -26.2287 18.0667 -45.715 -25.8448 18.1544 
-54.9102 -25.7363 17.7013 -56.8696 -26.0123 17.8682 -57.4816 -26.3626 18.1209 
-58.0165 -26.3425 18.4751 -58.3361 -26.257 17.9366 -63.0572 -25.8832 17.8235 
-63.8555 -26.4353 18.5414 -63.8843 -26.1925 17.9134 -64.3616 -26.5474 18.0529 
[...]
CELL_DATA 32432
SCALARS scalars float
LOOKUP_TABLE default
1031 1031 1031 1031 1031 1031 1031 1031 1031 
1031 1031 1031 1031 1031 1031 1031 1031 1031 
1031 1031 1031 1031 1031 1031 1031 1031 1031 
1031 1031 1031 1031 1031 1031 1031 1031 1031 
1031 1031 1031 1031 1031 1031 1031 1031 1031 
1031 1031 1031 1031 1031 1031 1031 1031 1031 
1031 1031 1031 1031 1031 1031 1031 1031 1031 
1031 1031 1031 1031 1031 1031 1031 1031 1031 
1031 1031 1031 1031 1031 1031 1031 1031 1031 
1031 1031 1031 1031 1031 1031 1031 1031 1031 
1031 1031 1031 1031 1031 1031 1031 1031 1031 
1031 1031 1031 1031 1031 1031 1031 1031 1031 
1031 1031 1031 1031 1031 1031 1031 1031 1031 
1031 1031 1031 1031 1031 1031 1031 1031 1031 
1031 1031 1031 1031 1031 1031 1031 1031 1031 
1031 1031 1031 1031 1031 1031 1031 1031 1031 
1031 1031 1031 1031 1031 1031 1031 1031 1031 
1031 1031 1031 1031 1031 1031 1031 1031 1031 
1031 1031 1031 1031 1031 1031 1031 1031 1031 
1031 1031 1031 1031 1031 1031 1031 1031 1031 
1031 1031 1031 1031 1031 1031 1031 1031 1031 
1031 1031 1031 1031 1031 1031 1031 1031 1031 
1031 1031 1031 1031 1031 1031 1031 1031 1031 
1031 1031 1031 1031 1031 1031 1031 1031 1031 
1031 1031 1031 1031 1031 1031 1031 1031 1031 
1031 1031 1031 1031 1031 1031 1031 1031 1031 
1031 1031 1031 1031 1031 1031 1031 1031 1031 
1031 1031 1031 1031 1031 1031 1031 1031 1031 
1031 1031 1031 1031 1031 1031 1031 1031 1031 
1031 1031 1031 1031 1031 1031 1031 1031 1031 
1031 1031 1031 1031 1031 1031 1031 1031 1031 
1031 1031 1031 1031 1031 1031 1031 1031 1031 
1031 1031 1031 1031 1031 1031 1031 1031 1031 
1031 1031 1031 1031 1031 1031 1031 1031 1031 
1031 1031 1031 1031 1031 1031 1031 1031 1031 
1031 1031 1031 1031 1031 1031 1031 1031 1031 
1031 1031 1031 1031 1031 1031 1031 1031 1031 
1031 1031 1031 1031 1031 1031 1031 1031 1031 
1031 1031 1031 1031 1031 1031 1031 1031 1031 
1031 1031 1031 1031 1031 1031 1031 1031 1031 
1031 1031 1031 1031 1031 1031 1031 1031 1031 
1031 1031 1031 1031 1031 1031 1031 1031 1031 
1031 1031 1031 1031 1031 1031 1031 1031 1031 
1031 1031 1031 1031 1031 1031 1031 1031 1031 
1031 1031 1031 1031 1031 1031 1031 1031 1031 
1031 1031 1031 1031 1031 1031 1031 1031 1031 
1031 1031 1031 1031 1031 1031 1031 1031 1031 
1031 1031 1031 1031 1031 1031 1031 1031 1031 
1031 1031 1031 1031 1031 1031 1031 1031 1031 
1031 1031 1031 1031 1031 1031 1031 1031 1031 
1031 1031 1031 1031 1031 1031 1031 1031 1031 
1031 1031 1031 1031 1031 1031 1031 1031 1031 
1031 1031 1031 1031 1031 1031 1031 1031 1031 
1031 1031 1031 1031 1031 1031 1031 1031 1031 
1031 1031 1031 1031 1031 1031 1031 1031 1031 
1031 1031 1031 1031 1031 1031 1031 1031 1031 
1031 1031 1031 1031 1031 1031 1031 1031 1031 
1031 1031 1031 1031 1031 1031 1031 1031 1031 
1031 1031 1031 1031 1031 1031 1031 1031 1031 
1031 1031 1031 1031 1031 1031 1031 1031 1031 
1031 1031 1031 1031 1031 1031 1031 1031 1031 
1031 1031 1031 1031 1031 1031 1031 1031 1031 
1031 1031 1031 1031 1031 1031 1031 1031 1031 
1031 1031 1031 1031 1031 1031 1031 1031 1031 
1031 1031 1031 1031 1031 1031 1031 1031 1031 
1031 1031 1031 1031 1031 1031 1031 1031 1031 
1031 1031 1031 1031 1031 1031 1031 1031 1031 
1031 1031 1031 1031 1031 1031 1031 1031 1031 
1031 1031 1031 1031 1031 1031 1031 1031 1031 
1031 1031 1031 1031 1031 1031 1031 1031 1031 
1031 1031 1031 1031 1031 1031 1031 1031 1031 
1031 1031 1031 1031 1031 1031 1031 1031 1031 
1031 1031 1031 1031 1031 1031 1031 1031 1031 
1031 1031 1031 1031 1031 1031 1031 1031 1031 
1031 1031 1031 1031 1031 1031 1031 1031 1031 
1031 1031 1031 1031 1031 1031 1031 1031 1031 
1031 1031 1031 1031 1031 1031 1031 1031 1031 
1031 1031 1031 1031 1031 1031 1031 1031 1031 
1031 1031 1031 1031 1031 1031 1031 1031 1031 
1031 1031 1031 1031 1031 1031 1031 1031 1031 
1031 1031 1031 1031 1031 1031 1031 1031 1031 
1031 1031 1031 1031 1031 1031 1031 1031 1031 
1031 1031 1031 1031 1031 1031 1031 1031 1031 
1031 1031 1031 1031 1031 1031 1031 1031 1031 
1031 1031 1031 1031 1031 1031 1031 1031 1031 
1031 1031 1031 1031 1031 1031 1031 1031 1031 
1031 1031 1031 1031 1031 1031 1031 1031 1031 
1031 1031 1031 1031 1031 1031 1031 1031 1031 
1031 1031 1031 1031 1031 1031 1031 1031 1031 
1031 1031 1031 1031 1031 1031 1031 1031 1031 
1031 1031 1031 1031 1031 1031 1031 1031 1031 
1031 1031 1031 1031 1031 1031 1031 1031 1031 
1031 1031 1031 1031 1031 1031 1031 1031 1031 
1031 1031 1031 1031 1031 1031 1031 1031 1031 
1031 1031 1031 1031 1031 1031 1031 1031 1031 
1031 1031 1031 1031 1031 1031 1031 1031 1031 
1031 1031 1031 1031 1031 1031 1031 1031 1031 
1031 1031 1031 1031 1031 1031 1031 1031 1031 
1031 1031 1031 1031 1031 1031 1031 1031 1031 
1031 1031 1031 1031 1031 1031 1031 1031 1031 
1031 1031 1031 1031 1031 1031 1031 1031 1031 
1031 1031 1031 1031 1031 1031 1031 1031 1031 
1031 1031 1031 1031 1031 1031 1031 1031 1031 
1031 1031 1031 1031 1031 1031 1031 1031 1031 
1031 1031 1031 1031 1031 1031 1031 1031 1031 
1031 1031 1031 1031 1031 1031 1031 1031 1031 
1031 1031 1031 1031 1031 1031 1031 1031 1031 
1031 1031 1031 1031 1031 1031 1031 1031 1031 
1031 1031 1031 1031 1031 1031 1031 1031 1031 
1031 1031 1031 1031 1031 1031 1031 1031 1031 
1031 1031 1031 1031 1031 1031 1031 1031 1031 
1031 1031 1031 1031 1031 1031 1031 1031 1031 
1031 1031 1031 1031 1031 1031 1031 1031 1031 
1031 1031 1031 1031 1031 1031 1031 1031 1031 
1031 1031 1031 1031 1031 1031 1031 1031 1031 
1031 1031 1031 1031 1031 1031 1031 1031 1031 
1031 1031 1031 1031 1031 1031 1031 1031 1031 
1031 1031 1031 1031 1031 1031 1031 1031 1031 
1031 1031 1031 1031 1031 1031 1031 1031 1031 
1031 1031 1031 1031 1031 1031 1031 1031 1031 
1031 1031 1031 1031 1031 1031 1031 1031 1031 
1031 1031 1031 1031 1031 1031 1031 1031 1031 
1031 1031 1031 1031 1031 1031 1031 1031 1031 
1031 1031 1031 1031 1031 1031 1031 1031 1031 
1031 1031 1031 1031 1031 1031 1031 1031 1031 
1031 1031 1031 1031 1031 1031 1031 1031 1031 
1031 1031 1031 1031 1031 1031 1031 1031 1031 
1031 1031 1031 1031 1031 1031 1031 1031 1031 
1031 1031 1031 1031 1031 1031 1031 1031 1031 
1031 1031 1031 1031 1031 1031 1031 1031 1031 
1031 1031 1031 1031 1031 1031 1031 1031 1031 
1031 1031 1031 1031 1031 1031 1031 1031 1031 
1031 1031 1031 1031 1031 1031 1031 1031 1031 
1031 1031 1031 1031 1031 1031 1031 1031 1031 
1031 1031 1031 1031 1031 1031 1031 1031 1031 
1031 1031 1031 1031 1031 1031 1031 1031 1031 
1031 1031 1031 1031 1031 1031 1031 1031 1031 
1031 1031 1031 1031 1031 1031 1031 1031 1031 
1031 1031 1031 1031 1031 1031 1031 1031 1031 
1031 1031 1031 1031 1031 1031 1031 1031 1031 
1031 1031 1031 1031 1031 1031 1031 1031 1031 
1031 1031 1031 1031 1031 1031 1031 1031 1031 
1031 1031 1031 1031 1031 1031 1031 1031 1031 
1031 1031 1031 1031 1031 1031 1031 1031 1031 
1031 1031 1031 1031 1031 1031 1031 1031 1031 
1031 1031 1031 1031 1031 1031 1031 1031 1031 
1031 1031 1031 1031 1031 1031 1031 1031 1031 
1031 1031 1031 1031 1031 1031 1031 1031 1031 
1031 1031 1031 1031 1031 1031 1031 1031 1031 
1031 1031 1031 1031 1031 1031 1031 1031 1031 
1031 1031 1031 1031 1031 1031 1031 1031 1031 
1031 1031 1031 1031 1031 1031 1031 1031 1031 
1031 1031 1031 1031 1031 1031 1031 1031 1031 
1031 1031 1031 1031 1031 1031 1031 1031 1031 
1031 1031 1031 1031 1031 1031 1031 1031 1031 
1031 1031 1031 1031 1031 1031 1031 1031 1031 
1031 1031 1031 1031 1031 1031 1031 1031 1031 
1031 1031 1031 1031 1031 1031 1031 1031 1031 
1031 1031 1031 1031 1031 1031 1031 1031 1031 
1031 1031 1031 1031 1031 1031 1031 1031 1031 
1031 1031 1031 1031 1031 1031 1031 1031 1031 
1031 1031 1031 1031 1031 1031 1031 1031 1031 
1031 1031 1031 1031 1031 1031 1031 1031 1031 
1031 1031 1031 1031 1031 1031 1031 1031 1031 
1031 1031 1031 1031 1031 1031 1031 1031 1031 
1031 1031 1031 1031 1031 1031 1031 1031 1031 
1031 1031 1031 1031 1031 1031 1031 1031 1031 
1031 1031 1031 1031 1031 1031 1031 1031 1031 
1031 1031 1031 1031 1031 1031 1031 1031 1031 
1031 1031 1031 1031 1031 1031 1031 1031 1031 
1031 1031 1031 1031 1031 1031 1031 1031 1031 
1031 1031 1031 1031 1031 1031 1031 1031 1031 
1031 1031 1031 1031 1031 1031 1031 1031 1031 
1031 1031 1031 1031 1031 1031 1031 1031 1031 
1031 1031 1031 1031 1031 1031 1031 1031 1031 
1031 1031 1031 1031 1031 1031 1031 1031 1031 
1031 1031 1031 1031 1031 1031 1031 1031 1031 
1031 1031 1031 1031 1031 1031 1031 1031 1031 
1031 1031 1031 1031 1031 1031 1031 1031 1031 
1031 1031 1031 1031 1031 1031 1031 1031 1031 
1031 1031 1031 1031 1031 1031 1031 1031 1031 
1031 1031 1031 1031 1031 1031 1031 1031 1031 
1031 1031 1031 1031 1031 1031 1031 1031 1031 
1031 1031 1031 1031 1031 1031 1031 1031 1031 
1031 1031 1031 1031 1031 1031 1031 1031 1031 
1031 1031 1031 1031 1031 1031 1031 1031 1031 
1031 1031 1031 1031 1031 1031 1031 1031 1031 
1031 1031 1031 1031 1031 1031 1031 1031 1031 
1031 1031 1031 1031 1031 1031 1031 1031 1031 
1031 1031 1031 1031 1031 1031 1031 1031 1031 
1031 1031 1031 1031 1031 1031 1031 1031 1031 
1031 1031 1031 1031 1031 1031 1031 1031 1031 
1031 1031 1031 1031 1031 1031 1031 1031 1031 
1031 1031 1031 1031 1031 1031 1031 1031 1031 
1031 1031 1031 1031 1031 1031 1031 1031 1031 
1031 1031 1031 1031 1031 1031 1031 1031 1031 
1031 1031 1031 1031 1031 1031 1031 1031 1031 
1031 1031 1031 1031 1031 1031 1031 1031 1031 
1031 1031 1031 1031 1031 1031 1031 1031 1031 
1031 1031 1031 1031 1031 1031 1031 1031 1031 
1031 1031 1031 1031 1031 1031 1031 1031 1031 
1031 1031 1031 1031 1031 1031 1031 1031 1031 
1031 1031 1031 1031 1031 1031 1031 1031 1031 
1031 1031 1031 1031 1031 1031 1031 1031 1031 
1031 1031 1031 1031 1031 1031 1031 1031 1031 
1031 1031 1031 1031 1031 1031 1031 1031 1031 
1031 1031 1031 1031 1031 1031 1031 1031 1031 
1031 1031 1031 1031 1031 1031 1031 1031 1031 
1031 1031 1031 1031 1031 1031 1031 1031 1031 
1031 1031 1031 1031 1031 1031 1031 1031 1031 
1031 1031 1031 1031 1031 1031 1031 1031 1031 
1031 1031 1031 1031 1031 1031 1031 1031 1031 
1031 1031 1031 1031 1031 1031 1031 1031 1031 
1031 1031 1031 1031 1031 1031 1031 1031 1031 
1031 1031 1031 1031 1031 1031 1031 1031 1031 
1031 1031 1031 1031 1031 1031 1031 1031 1031 
1031 1031 1031 1031 1031 1031 1031 1031 1031 
1031 1031 1031 1031 1031 1031 1031 1031 1031 
1031 1031 1031 1031 1031 1031 1031 1031 1031 
1031 1031 1031 1031 1031 1031 1031 1031 1031 
1031 1031 1031 1031 1031 1031 1031 1031 1031 
1031 1031 1031 1031 1031 1031 1031 1031 1031 
1031 1031 1031 1031 1031 1031 1031 1031 1031 
1031 1031 1031 1031 1031 1031 1031 1031 1031 
1031 1031 1031 1031 1031 1031 1031 1031 1031 
1031 1031 1031 1031 1031 1031 1031 1031 1031 
1031 1031 1031 1031 1031 1031 1031 1031 1031 
1031 1031 1031 1031 1031 1031 1031 1031 1031 
1031 1031 1031 1031 1031 1031 1031 1031 1031 
1031 1031 1031 1031 1031 1031 1031 1031 1031 
1031 1031 1031 1031 1031 1031 1031 1031 1031 
1031 1031 1031 1031 1031 1031 1031 1031 1031 
1031 1031 1031 1031 1031 1031 1031 1031 1031 
1031 1031 1031 1031 1031 1031 1031 1031 1031 
1031 1031 1031 1031 1031 1031 1031 1031 1031 
1031 1031 1031 1031 1031 1031 1031 1031 1031 
1031 1031 1031 1031 1031 1031 1031 1031 1031 
1031 1031 1031 1031 1031 1031 1031 1031 1031 
1031 1031 1031 1031 1031 1031 1031 1031 1031 
1031 1031 1031 1031 1031 1031 1031 1031 1031 
1031 1031 1031 1031 1031 1031 1031 1031 1031 
1031 1031 1031 1031 1031 1031 1031 1031 1031 
1031 1031 1031 1031 1031 1031 1031 1031 1031 
1031 1031 1031 1031 1031 1031 1031 1031 1031 
1031 1031 1031 1031 1031 1031 1031 1031 1031 
1031 1031 1031 1031 1031 1031 1031 1031 1031 
1031 1031 1031 1031 1031 1031 1031 1031 1031 
1031 1031 1031 1031 1031 1031 1031 1031 1031 
1031 1031 1031 1031 1031 1031 1031 1031 1031 
1031 1031 1031 1031 1031 1031 1031 1031 1031 
1031 1031 1031 1031 1031 1031 1031 1031 1031 
1031 1031 1031 1031 1031 1031 1031 1031 1031 
1031 1031 1031 1031 1031 1031 1031 1031 1031 
1031 1031 1031 1031 1031 1031 1031 1031 1031 
1031 1031 1031 1031 1031 1031 1031 1031 1031 
1031 1031 1031 1031 1031 1031 1031 1031 1031 
1031 1031 1031 1031 1031 1031 1031 1031 1031 
1031 1031 1031 1031 1031 1031 1031 1031 1031 
1031 1031 1031 1031 1031 1031 1031 1031 1031 
1031 1031 1031 1031 1031 1031 1031 1031 1031 
1031 1031 1031 1031 1031 1031 1031 1031 1031 
1031 1031 1031 1031 1031 1031 1031 1031 1031 
1031 1031 1031 1031 1031 1031 1031 1031 1031 
1031 1031 1031 1031 1031 1031 1031 1031 1031 
1031 1031 1031 1031 1031 1031 1031 1031 1031 
1031 1031 1031 1031 1031 1031 1031 1031 1031 
1031 1031 1031 1031 1031 1031 1031 1031 1031 
1031 1031 1031 1031 1031 1031 1031 1031 1031 
1031 1031 1031 1031 1031 1031 1031 1031 1031 
1031 1031 1031 1031 1031 1031 1031 1031 1031 
1031 1031 1031 1031 1031 1031 1031 1031 1031 
1031 1031 1031 1031 1031 1031 1031 1031 1031 
1031 1031 1031 1031 1031 1031 1031 1031 1031 
1031 1031 1031 1031 1031 1031 1031 1031 1031 
1031 1031 1031 1031 1031 1031 1031 1031 1031 
1031 1031 1031 1031 1031 1031 1031 1031 1031 
1031 1031 1031 1031 1031 1031 1031 1031 1031 
1031 1031 1031 1031 1031 1031 1031 1031 1031 
1031 1031 1031 1031 1031 1031 1031 1031 1031 
1031 1031 1031 1031 1031 1031 1031 1031 1031 
1031 1031 1031 1031 1031 1031 1031 1031 1031 
1031 1031 1031 1031 1031 1031 1031 1031 1031 
1031 1031 1031 1031 1031 1031 1031 1031 1031 
1031 1031 1031 1031 1031 1031 1031 1031 1031 
1031 1031 1031 1031 1031 1031 1031 1031 1031 
1031 1031 1031 1031 1031 1031 1031 1031 1031 
1031 1031 1031 1031 1031 1031 1031 1031 1031 
1031 1031 1031 1031 1031 1031 1031 1031 1031 
1031 1031 1031 1031 1031 1031 1031 1031 1031 
1031 1031 1031 1031 1031 1031 1031 1031 1031 
1031 1031 1031 1031 1031 1031 1031 1031 1031 
1031 1031 1031 1031 1031 1031 1031 1031 1031 
1031 1031 1031 1031 1031 1031 1031 1031 1031 
1031 1031 1031 1031 1031 1031 1031 1031 1031 
1031 1031 1031 1031 1031 1031 1031 1031 1031 
1031 1031 1031 1031 1031 1031 1031 1031 1031 
1031 1031 1031 1031 1031 1031 1031 1031 1031 
1031 1031 1031 1031 1031 1031 1031 1031 1031 
1031 1031 1031 1031 1031 1031 1031 1031 1031 
1031 1031 1031 1031 1031 1031 1031 1031 1031 
1031 1031 1031 1031 1031 1031 1031 1031 1031 
1031 1031 1031 1031 1031 1031 1031 1031 1031 
1031 1031 1031 1031 1031 1031 1031 1031 1031 
1031 1031 1031 1031 1031 1031 1031 1031 1031 
1031 1031 1031 1031 1031 1031 1031 1031 1031 
1031 1031 1031 1031 1031 1031 1031 1031 1031 
1031 1031 1031 1031 1031 1031 1031 1031 1031 
1031 1031 1031 1031 1031 1031 1031 1031 1031 
1031 1031 1031 1031 1031 1031 1031 1031 1031 
1031 1031 1031 1031 1031 1031 1031 1031 1031 
1031 1031 1031 1031 1031 1031 1031 1031 1031 
1031 1031 1031 1031 1031 1031 1031 1031 1031 
1031 1031 1031 1031 1031 1031 1031 1031 1031 
1031 1031 1031 1031 1031 1031 1031 1031 1031 
1031 1031 1031 1031 1031 1031 1031 1031 1031 
1031 1031 1031 1031 1031 1031 1031 1031 1031 
1031 1031 1031 1031 1031 1031 1031 1031 1031 
1031 1031 1031 1031 1031 1031 1031 1031 1031 
1031 1031 1031 1031 1031 1031 1031 1031 1031 
1031 1031 1031 1031 1031 1031 1031 1031 1031 
1031 1031 1031 1031 1031 1031 1031 1031 1031 
1031 1031 1031 1031 1031 1031 1031 1031 1031 
1031 1031 1031 1031 1031 1031 1031 1031 1031 
1031 1031 1031 1031 1031 1031 1031 1031 1031 
1031 1031 1031 1031 1031 1031 1031 1031 1031 
1031 1031 1031 1031 1031 1031 1031 1031 1031 
1031 1031 1031 1031 1031 1031 1031 1031 1031 
1031 1031 1031 1031 1031 1031 1031 1031 1031 
1031 1031 1031 1031 1031 1031 1031 1031 1031 
1031 1031 1031 1031 1031 1031 1031 1031 1031 
1031 1031 1031 1031 1031 1031 1031 1031 1031 
1031 1031 1031 1031 1031 1031 1031 1031 1031 
1031 1031 1031 1031 1031 1031 1031 1031 1031 
1031 1031 1031 1031 1031 1031 1031 1031 1031 
1031 1031 1031 1031 1031 1031 1031 1031 1031 
1031 1031 1031 1031 1031 1031 1031 1031 1031 
1031 1031 1031 1031 1031 1031 1031 1031 1031 
1031 1031 1031 1031 1031 1031 1031 1031 1031 
1031 1031 1031 1031 1031 1031 1031 1031 1031 
1031 1031 1031 1031 1031 1031 1031 1031 1031 
1031 1031 1031 1031 1031 1031 1031 1031 1031 
1031 1031 1031 1031 1031 1031 1031 1031 1031 
1031 1031 1031 1031 1031 1031 1031 1031 1031 
1031 1031 1031 1031 1031 1031 1031 1031 1031 
1031 1031 1031 1031 1031 1031 1031 1031 1031 
1031 1031 1031 1031 1031 1031 1031 1031 1031 
1031 1031 1031 1031 1031 1031 1031 1031 1031 
1031 1031 1031 1031 1031 1031 1031 1031 1031 
1031 1031 1031 1031 1031 1031 1031 1031 1031 
1031 1031 1031 1031 1031 1031 1031 1031 1031 
1031 1031 1031 1031 1031 1031 1031 1031 1031 
1031 1031 1031 1031 1031 1031 1031 1031 1031 
1031 1031 1031 1031 1031 1031 1031 1031 1031 
1031 1031 1031 1031 1031 1031 1031 1031 1031 
1031 1031 1031 1031 1031 1031 1031 1031 1031 
1031 1031 1031 1031 1031 1031 1031 1031 1031 
1031 1031 1031 1031 1031 1031 1031 1031 1031 
1031 1031 1031 1031 1031 1031 1031 1031 1031 
1031 1031 1031 1031 1031 1031 1031 1031 1031 
1031 1031 1031 1031 1031 1031 1031 1031 1031 
1031 1031 1031 1031 1031 1031 1031 1031 1031 
1031 1031 1031 1031 1031 1031 1031 1031 1031 
1031 1031 1031 1031 1031 1031 1031 1031 1031 
1031 1031 1031 1031 1031 1031 1031 1031 1031 
1031 1031 1031 1031 1031 1031 1031 1031 1031 
1031 1031 1031 1031 1031 1031 1031 1031 1031 
1031 1031 1031 1031 1031 1031 1031 1031 1031 
1031 1031 1031 1031 1031 1031 1031 1031 1031 
1031 1031 1031 1031 1031 1031 1031 1031 1031 
1031 1031 1031 1031 1031 1031 1031 1031 1031 
1031 1031 1031 1031 1031 1031 1031 1031 1031 
1031 1031 1031 1031 1031 1031 1031 1031 1031 
1031 1031 1031 1031 1031 1031 1031 1031 1031 
1031 1031 1031 1031 1031 1031 1031 1031 1031 
1031 1031 1031 1031 1031 1031 1031 1031 1031 
1031 1031 1031 1031 1031 1031 1031 1031 1031 
1031 1031 1031 1031 1031 1031 1031 1031 1031 
1031 1031 1031 1031 1031 1031 1031 1031 1031 
1031 1031 1031 1031 1031 1031 1031 1031 1031 
1031 1031 1031 1031 1031 1031 1031 1031 1031 
1031 1031 1031 1031 1031 1031 1031 1031 1031 
1031 1031 1031 1031 1031 1031 1031 1031 1031 
1031 1031 1031 1031 1031 1031 1031 1031 1031 
1031 1031 1031 1031 1031 1031 1031 1031 1031 
1031 1031 1031 1031 1031 1031 1031 1031 1031 
1031 1031 1031 1031 1031 1031 1031 1031 1031 
1031 1031 1031 1031 1031 1031 1031 1031 1031 
1031 1031 1031 1031 1031 1031 1031 1031 1031 
1031 1031 1031 1031 1031 1031 1031 1031 1031 
1031 1031 1031 1031 1031 1031 1031 1031 1031 
1031 1031 1031 1031 1031 1031 1031 1031 1031 
1031 1031 1031 1031 1031 1031 1031 1031 1031 
1031 1031 1031 1031 1031 1031 1031 1031 1031 
1031 1031 1031 1031 1031 1031 1031 1031 1031 
1031 1031 1031 1031 1031 1031 1031 1031 1031 
1031 1031 1031 1031 1031 1031 1031 1031 1031 
1031 1031 1031 1031 1031 1031 1031 1031 1031 
1031 1031 1031 1031 1031 1031 1031 1031 1031 
1031 1031 1031 1031 1031 1031 1031 1031 1031 
1031 1031 1031 1031 1031 1031 1031 1031 1031 
1031 1031 1031 1031 1031 1031 1031 1031 1031 
1031 1031 1031 1031 1031 1031 1031 1031 1031 
1031 1031 1031 1031 1031 1031 1031 1031 1031 
1031 1031 1031 1031 1031 1031 1031 1031 1031 
1031 1031 1031 1031 1031 1031 1031 1031 1031 
1031 1031 1031 1031 1031 1031 1031 1031 1031 
1031 1031 1031 1031 1031 1031 1031 1031 1031 
1031 1031 1031 1031 1031 1031 1031 1031 1031 
1031 1031 1031 1031 1031 1031 1031 1031 1031 
1031 1031 1031 1031 1031 1031 1031 1031 1031 
1031 1031 1031 1031 1031 1031 1031 1031 1031 
1031 1031 1031 1031 1031 1031 1031 1031 1031 
1031 1031 1031 1031 1031 1031 1031 1031 1031 
1031 1031 1031 1031 1031 1031 1031 1031 1031 
1031 1031 1031 1031 1031 1031 1031 1031 1031 
1031 1031 1031 1031 1031 1031 1031 1031 1031 
1031 1031 1031 1031 1031 1031 1031 1031 1031 
1031 1031 1031 1031 1031 1031 1031 1031 1031 
1031 1031 1031 1031 1031 1031 1031 1031 1031 
1031 1031 1031 1031 1031 1031 1031 1031 1031 
1031 1031 1031 1031 1031 1031 1031 1031 1031 
1031 1031 1031 1031 1031 1031 1031 1031 1031 
1031 1031 1031 1031 1031 1031 1031 1031 1031 
1031 1031 1031 1031 1031 1031 1031 1031 1031 
1031 1031 1031 1031 1031 1031 1031 1031 1031 
1031 1031 1031 1031 1031 1031 1031 1031 1031 
1031 1031 1031 1031 1031 1031 1031 1031 1031 
1031 1031 1031 1031 1031 1031 1031 1031 1031 
1031 1031 1031 1031 1031 1031 1031 1031 1031 
1031 1031 1031 1031 1031 1031 1031 1031 1031 
1031 1031 1031 1031 1031 1031 1031 1031 1031 
1031 1031 1031 1031 1031 1031 1031 1031 1031 
1031 1031 1031 1031 1031 1031 1031 1031 1031 