# vtk DataFile Version 4.0
vtk output
ASCII
DATASET POLYDATA
POINTS 16960 float
-52.9443 -56.3935 5.03155 -52.8909 -56.6622 5.17034 -52.7487 -56.5496 4.97432 
-53.2965 -56.6709 5.19619 -55.2439 -56.1681 4.99928 -55.1148 -56.5288 5.35763 
-54.567 -56.5694 4.8919 -55.7603 -56.1744 4.74537 -55.8578 -56.766 5.54153 
-56.5337 -56.751 4.8858 -52.9168 -56.7112 4.68932 -55.0229 -56.0908 3.97607 
-54.3869 -56.3816 3.9096 -55.645 -56.4394 3.92078 -56.0864 -56.5605 4.40284 
-51.2844 -56.1303 2.80312 -50.8409 -56.4999 3.29655 -50.4619 -56.4434 2.581 
-52.1483 -56.1251 2.93018 -51.7905 -56.586 3.43879 -52.961 -56.1732 2.76073 
-52.8484 -56.6604 3.15674 -54.096 -56.1667 3.09424 -53.7444 -56.5565 3.40161 
-54.7889 -56.1703 2.95468 -55.3021 -56.383 3.21578 -50.9634 -56.1934 2.07713 
-50.3972 -56.6299 1.84687 -51.8113 -56.1262 2.12946 -52.4793 -56.4565 2.14292 
-53.2832 -56.363 2.53363 -54.0991 -56.7646 2.37437 -55.0056 -56.6983 2.66677 
-50.9848 -56.622 1.5419 -51.6764 -56.7568 1.61623 -32.9646 -57.4117 30.9963 
-32.8292 -57.5482 31.2269 -32.7169 -57.5009 30.9807 -33.2094 -57.5814 31.1325 
-31.9782 -57.3622 29.9901 -31.9216 -57.5868 30.3739 -31.7216 -57.6911 30.0719 
-32.9984 -57.6161 30.7687 -32.2172 -57.5229 30.1323 -31.9087 -57.6904 29.6226 
-34.0304 -57.385 28.9304 -33.8848 -57.5424 29.1762 -33.6641 -57.6483 28.7612 
-34.3419 -57.7402 29.0921 -34.1005 -57.7035 28.7407 -40.2846 -57.1801 8.8747 
-39.8669 -57.558 9.34048 -39.5091 -57.4689 8.69289 -41.257 -57.1297 8.86841 
-40.6873 -57.509 9.50393 -42.2127 -57.2166 8.71459 -41.6655 -57.5317 9.4323 
-42.444 -57.5921 9.13232 -40.0655 -57.0815 8.00638 -39.4142 -57.6304 7.70706 
-40.9885 -56.9407 8.02151 -42.0204 -56.9775 7.9555 -42.8768 -57.445 8.54262 
-42.8849 -57.2047 7.89423 -43.3771 -57.5832 8.02912 -40.0764 -57.1507 7.05536 
-39.6166 -57.7422 6.752 -40.9653 -56.9142 6.99199 -41.9981 -56.9163 6.92646 
-42.8887 -57.108 6.95068 -43.5297 -57.5044 7.20535 -40.0751 -57.3765 6.40862 
-40.3417 -57.576 5.88583 -40.8893 -57.0961 6.05849 -41.9853 -56.9167 5.8856 
-42.8839 -57.0879 5.87395 -43.5381 -57.4793 6.18294 -53.9625 -57.1211 5.67909 
-54.0066 -57.8261 6.28718 -53.5314 -57.7216 5.86088 -54.542 -57.6189 6.1443 
-55.9927 -57.2489 6.028 -56.0066 -57.5441 6.13934 -55.7849 -57.5085 5.93702 
-56.2108 -57.5094 5.91697 -40.9507 -57.6166 5.40486 -41.53 -57.813 4.88887 
-41.7802 -57.1575 5.14006 -42.6812 -57.143 4.96984 -43.4434 -57.6144 4.97269 
-53.1542 -57.3427 5.36752 -52.5723 -57.1145 4.85055 -53.7103 -56.808 4.80311 
-55.0636 -57.2731 5.70392 -57.089 -57.1452 4.97921 -56.7613 -57.4258 5.40367 
-57.3445 -57.8224 4.95233 -42.3149 -57.5906 4.56747 -42.9267 -57.5655 4.53772 
-49.9812 -57.1525 3.88738 -49.8676 -57.8129 4.33222 -49.3072 -57.3731 3.84816 
-51.024 -56.9763 3.89924 -50.934 -57.6206 4.36069 -52.188 -57.0626 4.07179 
-52.0121 -57.6592 4.46273 -53.109 -57.1571 3.89659 -53.9404 -56.8576 4.05534 
-55.9678 -57.0061 3.82611 -56.5334 -57.4521 3.97417 -57.0956 -57.4382 4.49358 
-49.2582 -57.2014 3.11131 -48.922 -57.4329 3.49102 -48.7263 -57.6181 2.93669 
-50.0785 -56.8133 3.1875 -52.5214 -57.259 3.11549 -53.0134 -56.9316 2.58134 
-52.9959 -57.5601 3.27825 -53.3505 -57.267 3.19355 -55.617 -57.3852 2.98202 
-56.1012 -57.6314 3.40031 -49.2707 -57.736 2.23554 -49.6091 -57.5102 1.88215 
-49.7295 -57.0443 2.23808 -52.1629 -57.0908 2.14653 -51.5139 -57.3999 1.78087 
-51.9669 -57.8908 2.41761 -53.6661 -57.5494 2.25652 -53.9873 -57.2458 1.88928 
-54.2347 -57.3684 1.92345 -54.7649 -57.682 2.21345 -50.158 -57.2305 1.61683 
-50.8679 -57.3544 1.53008 -53.9967 -57.5176 1.7945 -33.9254 -58.3898 33.9692 
-34.0022 -58.7358 34.3585 -33.6567 -58.4656 33.9374 -34.3762 -58.6667 34.0498 
-33.0731 -58.2676 32.6823 -32.7747 -58.5833 33.2299 -32.3467 -58.4685 32.8552 
-33.979 -58.574 33.7334 -33.3745 -58.58 33.15 -31.7746 -58.5964 32.4404 
-31.5063 -58.4887 31.6581 -32.2483 -58.2172 32.1923 -33.0526 -57.88 31.7148 
-33.8779 -58.4612 32.7031 -34.1411 -58.1158 31.9933 -35.3764 -58.1475 31.8745 
-34.8577 -58.6176 32.4772 -36.1347 -58.2569 31.7513 -35.8076 -58.5874 32.1826 
-36.2874 -58.6083 31.7626 -32.3017 -57.8279 31.0083 -31.4507 -58.2738 30.6509 
-33.8655 -57.8796 30.8278 -35.1117 -58.0106 30.9735 -36.0304 -58.1374 30.9443 
-36.3817 -58.5044 30.9767 -31.2994 -58.5342 29.6528 -32.8411 -57.795 29.97 
-34.0907 -57.9117 29.6962 -34.9302 -58.0925 30.1331 -35.7866 -58.2366 30.0333 
-36.3061 -58.4539 30.1392 -31.2177 -58.1091 29.0365 -30.995 -58.4591 29.1916 
-30.8028 -58.5287 28.6658 -32.0362 -58.0157 28.7869 -33.2212 -57.8072 29.1161 
-34.9779 -58.3868 29.4212 -34.3723 -58.2359 28.868 -35.8658 -58.62 29.6529 
-51.065 -58.2832 28.8917 -50.9905 -58.4334 29.2002 -50.8307 -58.4006 28.8122 
-51.1596 -58.4727 29.0303 -31.0096 -58.2503 28.2687 -30.5749 -58.6222 28.0861 
-31.4902 -58.3972 28.0899 -32.1374 -58.3819 28.1545 -32.4576 -58.4595 27.5845 
-33.0419 -58.1625 28.1272 -33.8046 -58.3632 28.5448 -33.5223 -58.7136 27.9824 
-51.0743 -58.1726 27.8851 -50.3267 -58.8116 27.8581 -51.4859 -58.5954 28.4308 
-30.7922 -58.7063 27.6752 -32.9878 -58.3029 27.1886 -32.6561 -58.4713 27.0178 
-33.4031 -58.6979 27.0854 -49.285 -58.1592 26.8351 -48.9352 -58.6879 27.2938 
-48.5144 -58.6373 26.6553 -50.2792 -58.0568 27.0412 -49.7123 -58.5862 27.2851 
-51.1837 -57.9477 26.7859 -51.8449 -58.4053 27.5946 -51.8676 -58.1793 26.8778 
-52.3726 -58.5624 27.0559 -32.8932 -58.7209 26.5326 -49.0937 -58.065 25.9661 
-48.6218 -58.4994 25.7878 -49.9789 -57.9116 25.9769 -50.8434 -57.9255 26.0903 
-51.7058 -58.1666 25.8757 -52.4726 -58.5259 26.2758 -49.1014 -58.1697 25.0089 
-48.6428 -58.8353 24.8421 -49.7779 -57.9446 25.1011 -50.7955 -58.1182 24.9559 
-51.6569 -58.4522 25.0578 -52.2354 -58.5885 25.5258 -49.1451 -58.4082 24.2922 
-49.4638 -58.4702 23.8517 -49.8568 -58.1976 24.2151 -50.5986 -58.4286 24.0208 
-51.2309 -58.5471 24.4419 -49.8621 -58.715 23.5776 -39.2906 -58.2237 11.8461 
-38.8508 -58.5753 12.3398 -38.5351 -58.514 11.6676 -40.2229 -58.1457 11.8651 
-39.6573 -58.489 12.5009 -41.2287 -58.1378 11.8449 -40.6812 -58.4728 12.5067 
-42.1541 -58.1981 11.7255 -41.8478 -58.6802 12.4815 -42.5267 -58.6375 12.0759 
-39.0905 -58.1485 10.9749 -38.4429 -58.4975 10.714 -39.9846 -58.0168 11.0123 
-40.9889 -58.0008 11.005 -41.9978 -58.0015 10.9681 -42.7987 -58.4174 11.5868 
-43.0097 -58.1722 10.8682 -43.3795 -58.5404 11.1707 -38.9592 -58.1525 10.1411 
-38.4515 -58.4887 9.70368 -39.8274 -57.8889 10.0377 -40.9251 -57.8652 10.1401 
-42.0444 -57.8886 9.94588 -43.0109 -58.0208 9.93825 -43.8124 -58.4366 10.5585 
-43.855 -58.2461 9.89107 -44.3343 -58.574 10.05 -39.1109 -57.9773 9.26503 
-38.4488 -58.6629 8.66522 -43.144 -57.846 8.89575 -43.9016 -58.1808 8.95394 
-44.5133 -58.545 9.22225 -38.952 -58.0324 8.29432 -38.6512 -58.7742 7.73889 
-44.062 -58.0372 7.78987 -44.625 -58.5311 8.27848 -39.0022 -58.3094 7.53723 
-39.2518 -58.5475 6.79819 -44.0199 -57.8536 6.75982 -44.8458 -58.4803 7.54653 
-44.647 -58.2813 6.83554 -45.2313 -58.6442 7.11212 -39.862 -57.8671 6.11017 
-39.5873 -58.602 5.859 -44.2258 -57.9982 5.76532 -44.723 -58.4553 6.11613 
-45.1339 -58.6399 6.54562 -54.0585 -58.7788 6.41965 -53.6019 -58.3725 6.04583 
-55.1523 -58.0503 6.00094 -54.6983 -58.3065 6.36774 -56.0176 -57.8241 6.0218 
-55.4316 -58.844 5.82905 -40.2544 -58.2873 5.46761 -41.2051 -58.6075 5.16154 
-41.5656 -58.3981 4.92193 -44.1864 -57.8872 4.71418 -44.8001 -58.4337 5.52588 
-44.9925 -58.1586 4.79857 -45.3491 -58.6172 5.09538 -52.7902 -57.8912 4.89667 
-53.419 -58.5002 5.31147 -56.0997 -58.3249 5.62612 -57.0946 -58.3728 5.33683 
-57.4621 -58.7469 4.98757 -41.9986 -58.2339 4.65848 -43.0431 -58.4481 4.50019 
-43.8468 -58.0891 4.17094 -43.7385 -58.6421 3.99251 -44.8201 -58.0485 3.91667 
-45.9962 -58.5983 4.55889 -46.0427 -58.092 3.88492 -47.1751 -58.2014 3.64461 
-46.9012 -58.6536 4.20638 -47.5552 -58.6852 4.02043 -48.8687 -57.8494 3.79681 
-49.0201 -58.715 4.32153 -48.3789 -58.3929 3.82403 -50.133 -58.6734 4.51683 
-50.9816 -58.4907 4.51221 -52.0133 -58.5127 4.4689 -53.0599 -58.6444 4.61285 
-57.0656 -57.9375 4.00357 -57.4244 -58.4969 4.32718 -44.3224 -58.5327 3.68612 
-45.1297 -58.5565 3.35992 -45.7123 -58.5907 2.99748 -45.7424 -58.1277 3.18875 
-46.8496 -58.0737 2.8857 -47.8352 -58.4263 3.70603 -48.0309 -58.0205 3.06353 
-53.018 -57.9021 2.76728 -56.0274 -58.0384 2.98027 -56.4031 -58.4564 3.02459 
-57.007 -58.6855 3.56592 -46.2964 -58.5191 2.66929 -47.1249 -58.6185 2.29589 
-47.7312 -58.6689 1.91223 -47.7571 -58.18 2.11253 -48.6024 -58.0465 2.05673 
-49.1901 -58.3576 1.95415 -49.8646 -58.8304 2.15871 -50.1246 -57.907 1.92254 
-51.0645 -58.5614 2.34172 -51.0224 -57.8673 1.96023 -52.1383 -58.6989 2.50651 
-52.8229 -58.4992 2.55277 -54.0218 -58.6264 2.24317 -54.1446 -57.7969 1.99855 
-55.0708 -58.225 1.65257 -54.7387 -58.3888 1.71882 -55.3722 -58.2747 2.05293 
-55.789 -58.7234 2.34619 -48.2094 -58.4249 1.67466 -48.7371 -58.5343 1.70883 
-54.854 -58.6348 1.08448 -54.9419 -58.4249 1.10894 -55.1556 -58.5573 1.20587 
-54.9782 -58.6093 0.766124 -33.8997 -59.2452 35.6895 -34.168 -59.7665 36.4403 
-33.4824 -59.4779 36.0038 -34.5265 -59.6631 36.0138 -33.0761 -59.1075 35.0281 
-32.9166 -59.6222 35.5634 -32.4799 -59.7168 34.818 -33.7091 -58.951 34.8931 
-34.4957 -59.3782 35.2211 -31.3105 -59.2582 33.822 -30.9794 -59.5908 34.4605 
-30.6971 -59.8189 33.8871 -32.1982 -59.088 34.1548 -31.7386 -59.6709 34.2744 
-33.1981 -58.7475 33.8704 -35.1044 -59.0239 33.7315 -34.9715 -59.3719 34.4469 
-36.1297 -59.3086 33.7551 -35.8494 -59.5982 34.144 -36.3336 -59.6295 33.7649 
-30.9799 -59.4966 33.4551 -31.8574 -58.9263 33.1245 -31.1964 -59.3835 33.1354 
-34.157 -58.7587 33.178 -35.1265 -59.0193 32.9088 -35.8597 -59.2541 33.059 
-36.3313 -59.4947 33.2524 -30.2544 -59.3296 31.8878 -30.1431 -59.7224 32.2197 
-29.805 -59.587 31.9102 -30.8499 -59.3876 32.5206 -31.0897 -58.9519 32.1063 
-35.5017 -59.2581 32.1433 -35.932 -58.9572 31.7661 -35.948 -59.6045 32.599 
-30.1917 -59.7139 31.5482 -30.7342 -59.7374 30.7632 -30.7678 -59.0276 31.2216 
-35.266 -59.2201 30.8831 -34.3578 -59.5096 30.747 -34.8397 -59.6122 31.3415 
[...]
CELL_DATA 33996
SCALARS scalars float
LOOKUP_TABLE default
1008 1008 1008 1008 1008 1008 1008 1008 1008 
1008 1008 1008 1008 1008 1008 1008 1008 1008 
1008 1008 1008 1008 1008 1008 1008 1008 1008 
1008 1008 1008 1008 1008 1008 1008 1008 1008 
1008 1008 1008 1008 1008 1008 1008 1008 1008 
1008 1008 1008 1008 1008 1008 1008 1008 1008 
1008 1008 1008 1008 1008 1008 1008 1008 1008 
1008 1008 1008 1008 1008 1008 1008 1008 1008 
1008 1008 1008 1008 1008 1008 1008 1008 1008 
1008 1008 1008 1008 1008 1008 1008 1008 1008 
1008 1008 1008 1008 1008 1008 1008 1008 1008 
1008 1008 1008 1008 1008 1008 1008 1008 1008 
1008 1008 1008 1008 1008 1008 1008 1008 1008 
1008 1008 1008 1008 1008 1008 1008 1008 1008 
1008 1008 1008 1008 1008 1008 1008 1008 1008 
1008 1008 1008 1008 1008 1008 1008 1008 1008 
1008 1008 1008 1008 1008 1008 1008 1008 1008 
1008 1008 1008 1008 1008 1008 1008 1008 1008 
1008 1008 1008 1008 1008 1008 1008 1008 1008 
1008 1008 1008 1008 1008 1008 1008 1008 1008 
1008 1008 1008 1008 1008 1008 1008 1008 1008 
1008 1008 1008 1008 1008 1008 1008 1008 1008 
1008 1008 1008 1008 1008 1008 1008 1008 1008 
1008 1008 1008 1008 1008 1008 1008 1008 1008 
1008 1008 1008 1008 1008 1008 1008 1008 1008 
1008 1008 1008 1008 1008 1008 1008 1008 1008 
1008 1008 1008 1008 1008 1008 1008 1008 1008 
1008 1008 1008 1008 1008 1008 1008 1008 1008 
1008 1008 1008 1008 1008 1008 1008 1008 1008 
1008 1008 1008 1008 1008 1008 1008 1008 1008 
1008 1008 1008 1008 1008 1008 1008 1008 1008 
1008 1008 1008 1008 1008 1008 1008 1008 1008 
1008 1008 1008 1008 1008 1008 1008 1008 1008 
1008 1008 1008 1008 1008 1008 1008 1008 1008 
1008 1008 1008 1008 1008 1008 1008 1008 1008 
1008 1008 1008 1008 1008 1008 1008 1008 1008 
1008 1008 1008 1008 1008 1008 1008 1008 1008 
1008 1008 1008 1008 1008 1008 1008 1008 1008 
1008 1008 1008 1008 1008 1008 1008 1008 1008 
1008 1008 1008 1008 1008 1008 1008 1008 1008 
1008 1008 1008 1008 1008 1008 1008 1008 1008 
1008 1008 1008 1008 1008 1008 1008 1008 1008 
1008 1008 1008 1008 1008 1008 1008 1008 1008 
1008 1008 1008 1008 1008 1008 1008 1008 1008 
1008 1008 1008 1008 1008 1008 1008 1008 1008 
1008 1008 1008 1008 1008 1008 1008 1008 1008 
1008 1008 1008 1008 1008 1008 1008 1008 1008 
1008 1008 1008 1008 1008 1008 1008 1008 1008 
1008 1008 1008 1008 1008 1008 1008 1008 1008 
1008 1008 1008 1008 1008 1008 1008 1008 1008 
1008 1008 1008 1008 1008 1008 1008 1008 1008 
1008 1008 1008 1008 1008 1008 1008 1008 1008 
1008 1008 1008 1008 1008 1008 1008 1008 1008 
1008 1008 1008 1008 1008 1008 1008 1008 1008 
1008 1008 1008 1008 1008 1008 1008 1008 1008 
1008 1008 1008 1008 1008 1008 1008 1008 1008 
1008 1008 1008 1008 1008 1008 1008 1008 1008 
1008 1008 1008 1008 1008 1008 1008 1008 1008 
1008 1008 1008 1008 1008 1008 1008 1008 1008 
1008 1008 1008 1008 1008 1008 1008 1008 1008 
1008 1008 1008 1008 1008 1008 1008 1008 1008 
1008 1008 1008 1008 1008 1008 1008 1008 1008 
1008 1008 1008 1008 1008 1008 1008 1008 1008 
1008 1008 1008 1008 1008 1008 1008 1008 1008 
1008 1008 1008 1008 1008 1008 1008 1008 1008 
1008 1008 1008 1008 1008 1008 1008 1008 1008 
1008 1008 1008 1008 1008 1008 1008 1008 1008 
1008 1008 1008 1008 1008 1008 1008 1008 1008 
1008 1008 1008 1008 1008 1008 1008 1008 1008 
1008 1008 1008 1008 1008 1008 1008 1008 1008 
1008 1008 1008 1008 1008 1008 1008 1008 1008 
1008 1008 1008 1008 1008 1008 1008 1008 1008 
1008 1008 1008 1008 1008 1008 1008 1008 1008 
1008 1008 1008 1008 1008 1008 1008 1008 1008 
1008 1008 1008 1008 1008 1008 1008 1008 1008 
1008 1008 1008 1008 1008 1008 1008 1008 1008 
1008 1008 1008 1008 1008 1008 1008 1008 1008 
1008 1008 1008 1008 1008 1008 1008 1008 1008 
1008 1008 1008 1008 1008 1008 1008 1008 1008 
1008 1008 1008 1008 1008 1008 1008 1008 1008 
1008 1008 1008 1008 1008 1008 1008 1008 1008 
1008 1008 1008 1008 1008 1008 1008 1008 1008 
1008 1008 1008 1008 1008 1008 1008 1008 1008 
1008 1008 1008 1008 1008 1008 1008 1008 1008 
1008 1008 1008 1008 1008 1008 1008 1008 1008 
1008 1008 1008 1008 1008 1008 1008 1008 1008 
1008 1008 1008 1008 1008 1008 1008 1008 1008 
1008 1008 1008 1008 1008 1008 1008 1008 1008 
1008 1008 1008 1008 1008 1008 1008 1008 1008 
1008 1008 1008 1008 1008 1008 1008 1008 1008 
1008 1008 1008 1008 1008 1008 1008 1008 1008 
1008 1008 1008 1008 1008 1008 1008 1008 1008 
1008 1008 1008 1008 1008 1008 1008 1008 1008 
1008 1008 1008 1008 1008 1008 1008 1008 1008 
1008 1008 1008 1008 1008 1008 1008 1008 1008 
1008 1008 1008 1008 1008 1008 1008 1008 1008 
1008 1008 1008 1008 1008 1008 1008 1008 1008 
1008 1008 1008 1008 1008 1008 1008 1008 1008 
1008 1008 1008 1008 1008 1008 1008 1008 1008 
1008 1008 1008 1008 1008 1008 1008 1008 1008 
1008 1008 1008 1008 1008 1008 1008 1008 1008 
1008 1008 1008 1008 1008 1008 1008 1008 1008 
1008 1008 1008 1008 1008 1008 1008 1008 1008 
1008 1008 1008 1008 1008 1008 1008 1008 1008 
1008 1008 1008 1008 1008 1008 1008 1008 1008 
1008 1008 1008 1008 1008 1008 1008 1008 1008 
1008 1008 1008 1008 1008 1008 1008 1008 1008 
1008 1008 1008 1008 1008 1008 1008 1008 1008 
1008 1008 1008 1008 1008 1008 1008 1008 1008 
1008 1008 1008 1008 1008 1008 1008 1008 1008 
1008 1008 1008 1008 1008 1008 1008 1008 1008 
1008 1008 1008 1008 1008 1008 1008 1008 1008 
1008 1008 1008 1008 1008 1008 1008 1008 1008 
1008 1008 1008 1008 1008 1008 1008 1008 1008 
1008 1008 1008 1008 1008 1008 1008 1008 1008 
1008 1008 1008 1008 1008 1008 1008 1008 1008 
1008 1008 1008 1008 1008 1008 1008 1008 1008 
1008 1008 1008 1008 1008 1008 1008 1008 1008 
1008 1008 1008 1008 1008 1008 1008 1008 1008 
1008 1008 1008 1008 1008 1008 1008 1008 1008 
1008 1008 1008 1008 1008 1008 1008 1008 1008 
1008 1008 1008 1008 1008 1008 1008 1008 1008 
1008 1008 1008 1008 1008 1008 1008 1008 1008 
1008 1008 1008 1008 1008 1008 1008 1008 1008 
1008 1008 1008 1008 1008 1008 1008 1008 1008 
1008 1008 1008 1008 1008 1008 1008 1008 1008 
1008 1008 1008 1008 1008 1008 1008 1008 1008 
1008 1008 1008 1008 1008 1008 1008 1008 1008 
1008 1008 1008 1008 1008 1008 1008 1008 1008 
1008 1008 1008 1008 1008 1008 1008 1008 1008 
1008 1008 1008 1008 1008 1008 1008 1008 1008 
1008 1008 1008 1008 1008 1008 1008 1008 1008 
1008 1008 1008 1008 1008 1008 1008 1008 1008 
1008 1008 1008 1008 1008 1008 1008 1008 1008 
1008 1008 1008 1008 1008 1008 1008 1008 1008 
1008 1008 1008 1008 1008 1008 1008 1008 1008 
1008 1008 1008 1008 1008 1008 1008 1008 1008 
1008 1008 1008 1008 1008 1008 1008 1008 1008 
1008 1008 1008 1008 1008 1008 1008 1008 1008 
1008 1008 1008 1008 1008 1008 1008 1008 1008 
1008 1008 1008 1008 1008 1008 1008 1008 1008 
1008 1008 1008 1008 1008 1008 1008 1008 1008 
1008 1008 1008 1008 1008 1008 1008 1008 1008 
1008 1008 1008 1008 1008 1008 1008 1008 1008 
1008 1008 1008 1008 1008 1008 1008 1008 1008 
1008 1008 1008 1008 1008 1008 1008 1008 1008 
1008 1008 1008 1008 1008 1008 1008 1008 1008 
1008 1008 1008 1008 1008 1008 1008 1008 1008 
1008 1008 1008 1008 1008 1008 1008 1008 1008 
1008 1008 1008 1008 1008 1008 1008 1008 1008 
1008 1008 1008 1008 1008 1008 1008 1008 1008 
1008 1008 1008 1008 1008 1008 1008 1008 1008 
1008 1008 1008 1008 1008 1008 1008 1008 1008 
1008 1008 1008 1008 1008 1008 1008 1008 1008 
1008 1008 1008 1008 1008 1008 1008 1008 1008 
1008 1008 1008 1008 1008 1008 1008 1008 1008 
1008 1008 1008 1008 1008 1008 1008 1008 1008 
1008 1008 1008 1008 1008 1008 1008 1008 1008 
1008 1008 1008 1008 1008 1008 1008 1008 1008 
1008 1008 1008 1008 1008 1008 1008 1008 1008 
1008 1008 1008 1008 1008 1008 1008 1008 1008 
1008 1008 1008 1008 1008 1008 1008 1008 1008 
1008 1008 1008 1008 1008 1008 1008 1008 1008 
1008 1008 1008 1008 1008 1008 1008 1008 1008 
1008 1008 1008 1008 1008 1008 1008 1008 1008 
1008 1008 1008 1008 1008 1008 1008 1008 1008 
1008 1008 1008 1008 1008 1008 1008 1008 1008 
1008 1008 1008 1008 1008 1008 1008 1008 1008 
1008 1008 1008 1008 1008 1008 1008 1008 1008 
1008 1008 1008 1008 1008 1008 1008 1008 1008 
1008 1008 1008 1008 1008 1008 1008 1008 1008 
1008 1008 1008 1008 1008 1008 1008 1008 1008 
1008 1008 1008 1008 1008 1008 1008 1008 1008 
1008 1008 1008 1008 1008 1008 1008 1008 1008 
1008 1008 1008 1008 1008 1008 1008 1008 1008 
1008 1008 1008 1008 1008 1008 1008 1008 1008 
1008 1008 1008 1008 1008 1008 1008 1008 1008 
1008 1008 1008 1008 1008 1008 1008 1008 1008 
1008 1008 1008 1008 1008 1008 1008 1008 1008 
1008 1008 1008 1008 1008 1008 1008 1008 1008 
1008 1008 1008 1008 1008 1008 1008 1008 1008 
1008 1008 1008 1008 1008 1008 1008 1008 1008 
1008 1008 1008 1008 1008 1008 1008 1008 1008 
1008 1008 1008 1008 1008 1008 1008 1008 1008 
1008 1008 1008 1008 1008 1008 1008 1008 1008 
1008 1008 1008 1008 1008 1008 1008 1008 1008 
1008 1008 1008 1008 1008 1008 1008 1008 1008 
1008 1008 1008 1008 1008 1008 1008 1008 1008 
1008 1008 1008 1008 1008 1008 1008 1008 1008 
1008 1008 1008 1008 1008 1008 1008 1008 1008 
1008 1008 1008 1008 1008 1008 1008 1008 1008 
1008 1008 1008 1008 1008 1008 1008 1008 1008 
1008 1008 1008 1008 1008 1008 1008 1008 1008 
1008 1008 1008 1008 1008 1008 1008 1008 1008 
1008 1008 1008 1008 1008 1008 1008 1008 1008 
1008 1008 1008 1008 1008 1008 1008 1008 1008 
1008 1008 1008 1008 1008 1008 1008 1008 1008 
1008 1008 1008 1008 1008 1008 1008 1008 1008 
1008 1008 1008 1008 1008 1008 1008 1008 1008 
1008 1008 1008 1008 1008 1008 1008 1008 1008 
1008 1008 1008 1008 1008 1008 1008 1008 1008 
1008 1008 1008 1008 1008 1008 1008 1008 1008 
1008 1008 1008 1008 1008 1008 1008 1008 1008 
1008 1008 1008 1008 1008 1008 1008 1008 1008 
1008 1008 1008 1008 1008 1008 1008 1008 1008 
1008 1008 1008 1008 1008 1008 1008 1008 1008 
1008 1008 1008 1008 1008 1008 1008 1008 1008 
1008 1008 1008 1008 1008 1008 1008 1008 1008 
1008 1008 1008 1008 1008 1008 1008 1008 1008 
1008 1008 1008 1008 1008 1008 1008 1008 1008 
1008 1008 1008 1008 1008 1008 1008 1008 1008 
1008 1008 1008 1008 1008 1008 1008 1008 1008 
1008 1008 1008 1008 1008 1008 1008 1008 1008 
1008 1008 1008 1008 1008 1008 1008 1008 1008 
1008 1008 1008 1008 1008 1008 1008 1008 1008 
1008 1008 1008 1008 1008 1008 1008 1008 1008 
1008 1008 1008 1008 1008 1008 1008 1008 1008 
1008 1008 1008 1008 1008 1008 1008 1008 1008 
1008 1008 1008 1008 1008 1008 1008 1008 1008 
1008 1008 1008 1008 1008 1008 1008 1008 1008 
1008 1008 1008 1008 1008 1008 1008 1008 1008 
1008 1008 1008 1008 1008 1008 1008 1008 1008 
1008 1008 1008 1008 1008 1008 1008 1008 1008 
1008 1008 1008 1008 1008 1008 1008 1008 1008 
1008 1008 1008 1008 1008 1008 1008 1008 1008 
1008 1008 1008 1008 1008 1008 1008 1008 1008 
1008 1008 1008 1008 1008 1008 1008 1008 1008 
1008 1008 1008 1008 1008 1008 1008 1008 1008 
1008 1008 1008 1008 1008 1008 1008 1008 1008 
1008 1008 1008 1008 1008 1008 1008 1008 1008 
1008 1008 1008 1008 1008 1008 1008 1008 1008 
1008 1008 1008 1008 1008 1008 1008 1008 1008 
1008 1008 1008 1008 1008 1008 1008 1008 1008 
1008 1008 1008 1008 1008 1008 1008 1008 1008 
1008 1008 1008 1008 1008 1008 1008 1008 1008 
1008 1008 1008 1008 1008 1008 1008 1008 1008 
1008 1008 1008 1008 1008 1008 1008 1008 1008 
1008 1008 1008 1008 1008 1008 1008 1008 1008 
1008 1008 1008 1008 1008 1008 1008 1008 1008 
1008 1008 1008 1008 1008 1008 1008 1008 1008 
1008 1008 1008 1008 1008 1008 1008 1008 1008 
1008 1008 1008 1008 1008 1008 1008 1008 1008 
1008 1008 1008 1008 1008 1008 1008 1008 1008 
1008 1008 1008 1008 1008 1008 1008 1008 1008 
1008 1008 1008 1008 1008 1008 1008 1008 1008 
1008 1008 1008 1008 1008 1008 1008 1008 1008 
1008 1008 1008 1008 1008 1008 1008 1008 1008 
1008 1008 1008 1008 1008 1008 1008 1008 1008 
1008 1008 1008 1008 1008 1008 1008 1008 1008 
1008 1008 1008 1008 1008 1008 1008 1008 1008 
1008 1008 1008 1008 1008 1008 1008 1008 1008 
1008 1008 1008 1008 1008 1008 1008 1008 1008 
1008 1008 1008 1008 1008 1008 1008 1008 1008 
1008 1008 1008 1008 1008 1008 1008 1008 1008 
1008 1008 1008 1008 1008 1008 1008 1008 1008 
1008 1008 1008 1008 1008 1008 1008 1008 1008 
1008 1008 1008 1008 1008 1008 1008 1008 1008 
1008 1008 1008 1008 1008 1008 1008 1008 1008 
1008 1008 1008 1008 1008 1008 1008 1008 1008 
1008 1008 1008 1008 1008 1008 1008 1008 1008 
1008 1008 1008 1008 1008 1008 1008 1008 1008 
1008 1008 1008 1008 1008 1008 1008 1008 1008 
1008 1008 1008 1008 1008 1008 1008 1008 1008 
1008 1008 1008 1008 1008 1008 1008 1008 1008 
1008 1008 1008 1008 1008 1008 1008 1008 1008 
1008 1008 1008 1008 1008 1008 1008 1008 1008 
1008 1008 1008 1008 1008 1008 1008 1008 1008 
1008 1008 1008 1008 1008 1008 1008 1008 1008 
1008 1008 1008 1008 1008 1008 1008 1008 1008 
1008 1008 1008 1008 1008 1008 1008 1008 1008 
1008 1008 1008 1008 1008 1008 1008 1008 1008 
1008 1008 1008 1008 1008 1008 1008 1008 1008 
1008 1008 1008 1008 1008 1008 1008 1008 1008 
1008 1008 1008 1008 1008 1008 1008 1008 1008 
1008 1008 1008 1008 1008 1008 1008 1008 1008 
1008 1008 1008 1008 1008 1008 1008 1008 1008 
1008 1008 1008 1008 1008 1008 1008 1008 1008 
1008 1008 1008 1008 1008 1008 1008 1008 1008 
1008 1008 1008 1008 1008 1008 1008 1008 1008 
1008 1008 1008 1008 1008 1008 1008 1008 1008 
1008 1008 1008 1008 1008 1008 1008 1008 1008 
1008 1008 1008 1008 1008 1008 1008 1008 1008 
1008 1008 1008 1008 1008 1008 1008 1008 1008 
1008 1008 1008 1008 1008 1008 1008 1008 1008 
1008 1008 1008 1008 1008 1008 1008 1008 1008 
1008 1008 1008 1008 1008 1008 1008 1008 1008 
1008 1008 1008 1008 1008 1008 1008 1008 1008 
1008 1008 1008 1008 1008 1008 1008 1008 1008 
1008 1008 1008 1008 1008 1008 1008 1008 1008 
1008 1008 1008 1008 1008 1008 1008 1008 1008 
1008 1008 1008 1008 1008 1008 1008 1008 1008 
1008 1008 1008 1008 1008 1008 1008 1008 1008 
1008 1008 1008 1008 1008 1008 1008 1008 1008 
1008 1008 1008 1008 1008 1008 1008 1008 1008 
1008 1008 1008 1008 1008 1008 1008 1008 1008 
1008 1008 1008 1008 1008 1008 1008 1008 1008 
1008 1008 1008 1008 1008 1008 1008 1008 1008 
1008 1008 1008 1008 1008 1008 1008 1008 1008 
1008 1008 1008 1008 1008 1008 1008 1008 1008 
1008 1008 1008 1008 1008 1008 1008 1008 1008 
1008 1008 1008 1008 1008 1008 1008 1008 1008 
1008 1008 1008 1008 1008 1008 1008 1008 1008 
1008 1008 1008 1008 1008 1008 1008 1008 1008 
1008 1008 1008 1008 1008 1008 1008 1008 1008 
1008 1008 1008 1008 1008 1008 1008 1008 1008 
1008 1008 1008 1008 1008 1008 1008 1008 1008 
1008 1008 1008 1008 1008 1008 1008 1008 1008 
1008 1008 1008 1008 1008 1008 1008 1008 1008 
1008 1008 1008 1008 1008 1008 1008 1008 1008 
1008 1008 1008 1008 1008 1008 1008 1008 1008 
1008 1008 1008 1008 1008 1008 1008 1008 1008 
1008 1008 1008 1008 1008 1008 1008 1008 1008 
1008 1008 1008 1008 1008 1008 1008 1008 1008 
1008 1008 1008 1008 1008 1008 1008 1008 1008 
1008 1008 1008 1008 1008 1008 1008 1008 1008 
1008 1008 1008 1008 1008 1008 1008 1008 1008 
1008 1008 1008 1008 1008 1008 1008 1008 1008 
1008 1008 1008 1008 1008 1008 1008 1008 1008 
1008 1008 1008 1008 1008 1008 1008 1008 1008 
1008 1008 1008 1008 1008 1008 1008 1008 1008 
1008 1008 1008 1008 1008 1008 1008 1008 1008 
1008 1008 1008 1008 1008 1008 1008 1008 1008 
1008 1008 1008 1008 1008 1008 1008 1008 1008 
1008 1008 1008 1008 1008 1008 1008 1008 1008 
1008 1008 1008 1008 1008 1008 1008 1008 1008 
1008 1008 1008 1008 1008 1008 1008 1008 1008 
1008 1008 1008 1008 1008 1008 1008 1008 1008 
1008 1008 1008 1008 1008 1008 1008 1008 1008 
1008 1008 1008 1008 1008 1008 1008 1008 1008 
1008 1008 1008 1008 1008 1008 1008 1008 1008 
1008 1008 1008 1008 1008 1008 1008 1008 1008 
1008 1008 1008 1008 1008 1008 1008 1008 1008 
1008 1008 1008 1008 1008 1008 1008 1008 1008 
1008 1008 1008 1008 1008 1008 1008 1008 1008 
1008 1008 1008 1008 1008 1008 1008 1008 1008 
1008 1008 1008 1008 1008 1008 1008 1008 1008 
1008 1008 1008 1008 1008 1008 1008 1008 1008 
1008 1008 1008 1008 1008 1008 1008 1008 1008 
1008 1008 1008 1008 1008 1008 1008 1008 1008 
1008 1008 1008 1008 1008 1008 1008 1008 1008 
1008 1008 1008 1008 1008 1008 1008 1008 1008 
1008 1008 1008 1008 1008 1008 1008 1008 1008 
1008 1008 1008 1008 1008 1008 1008 1008 1008 
1008 1008 1008 1008 1008 1008 1008 1008 1008 
1008 1008 1008 1008 1008 1008 1008 1008 1008 
1008 1008 1008 1008 1008 1008 1008 1008 1008 
1008 1008 1008 1008 1008 1008 1008 1008 1008 
1008 1008 1008 1008 1008 1008 1008 1008 1008 
1008 1008 1008 1008 1008 1008 1008 1008 1008 
1008 1008 1008 1008 1008 1008 1008 1008 1008 
1008 1008 1008 1008 1008 1008 1008 1008 1008 
1008 1008 1008 1008 1008 1008 1008 1008 1008 
1008 1008 1008 1008 1008 1008 1008 1008 1008 
1008 1008 1008 1008 1008 1008 1008 1008 1008 
1008 1008 1008 1008 1008 1008 1008 1008 1008 
1008 1008 1008 1008 1008 1008 1008 1008 1008 
1008 1008 1008 1008 1008 1008 1008 1008 1008 
1008 1008 1008 1008 1008 1008 1008 1008 1008 
1008 1008 1008 1008 1008 1008 1008 1008 1008 
1008 1008 1008 1008 1008 1008 1008 1008 1008 
1008 1008 1008 1008 1008 1008 1008 1008 1008 
1008 1008 1008 1008 1008 1008 1008 1008 1008 
1008 1008 1008 1008 1008 1008 1008 1008 1008 
1008 1008 1008 1008 1008 1008 1008 1008 1008 
1008 1008 1008 1008 1008 1008 1008 1008 1008 
1008 1008 1008 1008 1008 1008 1008 1008 1008 
1008 1008 1008 1008 1008 1008 1008 1008 1008 
1008 1008 1008 1008 1008 1008 1008 1008 1008 
1008 1008 1008 1008 1008 1008 1008 1008 1008 
1008 1008 1008 1008 1008 1008 1008 1008 1008 
1008 1008 1008 1008 1008 1008 1008 1008 1008 
1008 1008 1008 1008 1008 1008 1008 1008 1008 
1008 1008 1008 1008 1008 1008 1008 1008 1008 
1008 1008 1008 1008 1008 1008 1008 1008 1008 
1008 1008 1008 1008 1008 1008 1008 1008 1008 
1008 1008 1008 1008 1008 1008 1008 1008 1008 
1008 1008 1008 1008 1008 1008 1008 1008 1008 
1008 1008 1008 1008 1008 1008 1008 1008 1008 
1008 1008 1008 1008 1008 1008 1008 1008 1008 
1008 1008 1008 1008 1008 1008 1008 1008 1008 
1008 1008 1008 1008 1008 1008 1008 1008 1008 
1008 1008 1008 1008 1008 1008 1008 1008 1008 
1008 1008 1008 1008 1008 1008 1008 1008 1008 
1008 1008 1008 1008 1008 1008 1008 1008 1008 
1008 1008 1008 1008 1008 1008 1008 1008 1008 
1008 1008 1008 1008 1008 1008 1008 1008 1008 
1008 1008 1008 1008 1008 1008 1008 1008 1008 
1008 1008 1008 1008 1008 1008 1008 1008 1008 
1008 1008 1008 1008 1008 1008 1008 1008 1008 
1008 1008 1008 1008 1008 1008 1008 1008 1008 
1008 1008 1008 1008 1008 1008 1008 1008 1008 
1008 1008 1008 1008 1008 1008 1008 1008 1008 
1008 1008 1008 1008 1008 1008 1008 1008 1008 
1008 1008 1008 1008 1008 1008 1008 1008 1008 
1008 1008 1008 1008 1008 1008 1008 1008 1008 
1008 1008 1008 1008 1008 1008 1008 1008 1008 
1008 1008 1008 1008 1008 1008 1008 1008 1008 
1008 1008 1008 1008 1008 1008 1008 1008 1008 
1008 1008 1008 1008 1008 1008 1008 1008 1008 
1008 1008 1008 1008 1008 1008 1008 1008 1008 
1008 1008 1008 1008 1008 1008 1008 1008 1008 
1008 1008 1008 1008 1008 1008 1008 1008 1008 
1008 1008 1008 1008 1008 1008 1008 1008 1008 
1008 1008 1008 1008 1008 1008 1008 1008 1008 
1008 1008 1008 1008 1008 1008 1008 1008 1008 
1008 1008 1008 1008 1008 1008 1008 1008 1008 
1008 1008 1008 1008 1008 1008 1008 1008 1008 
1008 1008 1008 1008 1008 1008 1008 1008 1008 
1008 1008 1008 1008 1008 1008 1008 1008 1008 
1008 1008 1008 1008 1008 1008 1008 1008 1008 
1008 1008 1008 1008 1008 1008 1008 1008 1008 
1008 1008 1008 1008 1008 1008 1008 1008 1008 
1008 1008 1008 1008 1008 1008 1008 1008 1008 
1008 1008 1008 1008 1008 1008 1008 1008 1008 
1008 1008 1008 1008 1008 1008 1008 1008 1008 
1008 1008 1008 1008 1008 1008 1008 1008 1008 
1008 1008 1008 1008 1008 1008 1008 1008 1008 
1008 1008 1008 1008 1008 1008 1008 1008 1008 
1008 1008 1008 1008 1008 1008 1008 1008 1008 
1008 1008 1008 1008 1008 1008 1008 1008 1008 
1008 1008 1008 1008 1008 1008 1008 1008 1008 
1008 1008 1008 1008 1008 1008 1008 1008 1008 
1008 1008 1008 1008 1008 1008 1008 1008 1008 
1008 1008 1008 1008 1008 1008 1008 1008 1008 
1008 1008 1008 1008 1008 1008 1008 1008 1008 
1008 1008 1008 1008 1008 1008 1008 1008 1008 
1008 1008 1008 1008 1008 1008 1008 1008 1008 
1008 1008 1008 1008 1008 1008 1008 1008 1008 
1008 1008 1008 1008 1008 1008 1008 1008 1008 
1008 1008 1008 1008 1008 1008 1008 1008 1008 
1008 1008 1008 1008 1008 1008 1008 1008 1008 
1008 1008 1008 1008 1008 1008 1008 1008 1008 
1008 1008 1008 1008 1008 1008 1008 1008 1008 