# vtk DataFile Version 4.0
vtk output
ASCII
DATASET POLYDATA
POINTS 21154 float
61.7688 14.8351 6.75062 61.9952 14.3039 7.38165 62.5229 14.439 6.63153 
61.4096 14.4038 7.07482 62.0478 14.8849 6.18936 62.3967 14.3165 5.74249 
60.9123 14.5357 6.6447 61.085 14.9084 6.12531 60.1456 14.7613 5.8971 
60.2248 14.588 6.27056 59.7015 14.2129 5.90493 61.7172 14.6262 5.53508 
60.6883 14.6152 5.47072 59.895 14.4031 5.48053 58.049 13.6694 27.0311 
58.05 13.5587 27.294 58.2329 13.4251 27.0073 57.7833 13.5039 27.159 
57.8718 13.4934 26.772 62.8291 13.8824 8.0379 62.9216 13.2476 8.29875 
63.322 13.5853 7.79014 62.2933 14.0078 7.90858 62.2911 13.5556 8.27766 
61.6545 13.3753 7.95422 62.8941 14.0518 7.35926 63.3822 13.2565 7.12704 
60.8478 13.9546 6.96248 61.2174 13.7018 7.40072 60.4978 13.3343 7.17841 
59.0357 13.702 6.98259 59.0047 13.5052 7.17756 59.3539 13.414 7.16804 
58.7397 13.2605 6.86653 63.0212 13.6833 6.64422 62.7376 13.5652 6.03477 
60.1268 13.8721 6.53674 59.5069 13.4323 5.91734 59.1622 13.512 6.73812 
62.0685 14.0535 5.07904 62.3932 13.3442 5.17889 61.2735 14.089 4.9302 
60.2527 14.0027 4.94816 59.5808 13.5845 5.10186 61.8103 13.5567 4.66863 
60.8845 13.4427 4.38948 59.9406 13.3771 4.42495 57.8748 13.0455 27.7094 
57.9528 12.5262 28.4745 58.5313 12.5288 28.0519 56.7644 12.8093 27.7489 
57.3266 12.5126 28.5071 56.5473 12.4499 28.2334 58.7463 12.9207 27.0594 
59.0588 12.5235 27.5138 59.4647 12.4853 26.8254 57.1256 13.1482 26.8236 
56.0766 12.5712 27.6089 56.0822 12.7932 26.9264 55.5838 12.4508 27.1047 
59.0135 12.9507 25.8361 59.7471 12.6213 25.903 57.9268 13.1643 26.1328 
56.9898 13.0482 25.9305 56.2796 12.8248 25.8978 55.503 12.486 26.311 
59.7042 12.8884 25.0055 60.1285 12.3864 25.5777 60.3314 12.4238 24.8816 
58.8606 13.0613 24.7785 58.0137 13.0473 24.9392 56.9737 12.9075 25.0514 
56.2654 12.5757 25.0239 55.7597 12.4292 25.5343 60.0372 12.8929 24.1083 
60.5405 12.4549 23.8118 59.2836 12.9439 23.9128 58.2402 12.9191 24.0629 
57.2966 12.8183 24.0829 56.5154 12.5171 24.2559 59.9753 12.7813 23.2591 
60.3554 12.4791 22.8487 59.4136 12.623 23.0927 58.6639 12.5651 23.359 
57.7051 12.5416 23.4551 56.8911 12.4568 23.5982 59.8479 12.4777 22.6632 
62.9144 12.3288 8.56355 63.4616 12.6419 7.97929 62.0302 12.6183 8.39142 
61.3093 12.421 8.10359 60.0015 12.8419 7.66319 60.1121 12.0937 8.27753 
60.5311 12.47 7.98886 59.4283 12.326 8.10228 63.4167 12.2462 7.09607 
60.9029 12.8166 7.75096 59.7047 13.3287 6.76333 58.9312 12.6424 7.56005 
58.3213 12.4821 7.07269 63.086 12.8091 6.44341 62.6849 12.4873 5.82963 
58.9434 13.0426 6.13103 58.0315 12.4932 6.5397 58.261 12.6697 5.94586 
57.5757 12.258 5.89853 62.3172 12.2632 5.24036 59.2458 12.7809 5.17715 
58.6747 12.3343 5.46029 58.132 12.3882 5.71836 61.8288 12.8646 4.50102 
61.0896 12.967 3.87285 61.546 12.3149 3.98755 60.3177 12.9492 3.69662 
59.5028 12.5084 4.04691 60.9665 12.7499 3.19556 61.2603 12.2405 3.15993 
60.6115 12.6207 2.98262 60.2741 12.2789 3.35083 60.9954 12.5456 2.74789 
57.6867 11.7974 29.9074 58.0428 11.2808 30.2991 58.2822 11.5092 29.7871 
56.8378 11.8104 29.792 57.3765 11.3261 30.5136 56.6332 11.4554 30.2092 
58.079 12.077 28.9758 58.6693 11.4583 29.0807 56.927 12.1336 29.0063 
56.1878 11.5943 29.6188 55.9336 11.8332 28.8899 55.6125 11.4486 29.1714 
59.0587 12.0239 28.0085 59.0899 11.3445 28.5556 59.516 11.3829 27.9598 
55.8286 12.1922 27.9618 55.1684 11.5355 28.5757 54.8968 11.8116 27.8524 
54.5841 11.4216 28.1402 59.8297 11.8864 27.1616 60.017 11.1766 27.39 
60.2686 11.5189 26.7354 54.9038 12.1352 26.8616 54.1181 11.5408 27.5606 
53.8782 11.8222 26.851 53.5026 11.4493 27.1334 60.071 12.1103 26.3097 
60.4262 11.6062 25.9039 55.0024 12.1234 25.7007 54.103 12.0046 26.1125 
53.0866 11.5792 26.5504 53.2677 11.7776 25.8891 52.6488 11.4446 26.1176 
60.7129 11.6566 24.901 55.8128 12.2078 24.8463 55.1685 11.8525 24.7386 
54.1406 11.8141 25.2212 53.3457 11.5968 25.1498 52.7494 11.4548 25.5255 
60.9699 11.8991 24.0402 61.0893 11.3696 24.5731 61.3222 11.4187 23.9071 
56.0672 12.0195 23.7904 55.335 11.5773 24.0111 54.6685 11.4664 24.4094 
53.8776 11.4304 24.6565 60.9052 12.07 23.0363 61.543 11.4562 22.8565 
59.2027 12.2526 22.6639 58.2654 12.0398 22.7733 57.1125 12.0599 23.0504 
56.2816 11.8015 22.937 55.6002 11.5142 23.2495 60.9334 11.9247 21.9385 
61.5664 11.547 21.6914 60.0863 12.1666 22.202 59.1451 11.8467 21.901 
58.3902 11.3276 21.9679 57.6863 11.3746 22.4458 56.7591 11.4325 22.5827 
55.8407 11.2499 22.6436 61.04 11.7871 21.1381 61.3837 11.4674 20.8504 
60.179 11.8508 21.1933 59.4071 11.5698 21.0972 58.8785 11.3461 21.3985 
60.6874 11.527 20.5132 59.8979 11.4589 20.5896 62.9144 11.7329 8.92928 
63.148 11.3136 9.43407 63.4061 11.5561 8.89267 62.6361 11.4208 9.17811 
63.5581 11.4891 7.97601 62.2256 11.787 8.70282 60.8373 12.2009 8.10045 
61.0187 11.6287 8.498 59.7794 11.2994 8.50441 58.9526 12.0308 8.09652 
59.0483 11.5129 8.38057 58.4293 11.5043 8.05773 63.3987 11.223 7.08128 
57.9614 12.0333 7.01147 57.9591 11.4867 7.53802 57.5082 11.5374 7.01994 
63.0323 11.744 6.43819 62.5009 11.3308 5.88322 56.7279 11.8867 5.73151 
57.1918 11.7946 6.45048 56.5703 11.4752 6.18833 62.0877 11.507 5.3658 
61.9696 12.0651 4.81699 61.7392 11.3847 4.85482 58.9696 12.0247 4.64277 
58.5083 11.6086 5.00589 57.9391 11.8241 5.37415 56.9484 11.9034 5.09572 
57.406 11.4293 4.85782 56.1477 11.5974 5.56693 56.1111 11.8344 4.91261 
55.6577 11.5016 5.0488 61.3255 11.3647 4.08297 58.9004 11.8893 3.78433 
58.4908 11.4423 4.23387 56.8541 11.5701 4.43421 56.5791 11.3238 3.92714 
56.2436 11.7539 4.26148 55.5476 11.5428 4.28874 60.8516 11.7484 3.41925 
60.8735 12.2804 2.90907 59.9121 11.5306 3.56665 59.1511 11.8089 3.2077 
59.4547 11.3679 3.10202 58.5427 11.4821 3.26765 55.8523 11.1652 3.70519 
59.0922 11.2945 2.66138 56.7071 10.9562 30.8921 56.9209 10.5296 31.4721 
57.385 10.5945 31.1337 55.8383 10.7929 30.758 56.3443 10.5099 31.4901 
55.6294 10.4524 31.2145 57.9232 10.7682 30.6307 58.5334 10.7532 29.9801 
55.8856 11.1836 29.9525 55.1937 10.5575 30.593 54.9471 10.8228 29.8568 
54.5961 10.459 30.1507 58.9549 10.9085 29.149 59.0708 10.3504 29.5622 
59.3428 10.5716 28.8357 54.8874 11.1749 28.9277 54.0676 10.5803 29.6341 
53.8679 10.8853 28.9412 52.9883 10.7587 28.7756 53.0977 10.3443 29.4687 
52.4921 10.4036 28.9932 59.7218 10.5726 28.0968 53.8516 11.1834 27.9235 
52.9279 10.8948 27.9292 52.4096 10.5496 28.3433 60.0752 10.4103 27.6419 
60.3928 10.6239 26.9355 52.8261 11.1812 26.908 52.178 10.5902 27.6051 
52.1205 10.7822 26.9237 51.6627 10.4274 27.0792 60.6981 10.6254 25.9313 
52.0055 11.0083 25.7857 51.3796 10.4995 26.3145 60.9582 10.932 25.1495 
61.0599 10.3215 25.5768 61.3201 10.5624 24.8744 52.9029 11.1732 24.7658 
51.9582 11.0102 24.9233 51.0792 10.5766 25.5689 51.2626 10.7586 24.8658 
50.6471 10.4276 25.1315 61.6252 10.5847 23.9223 55.0118 11.2474 23.7127 
54.1553 10.9919 23.8814 53.1489 10.8287 23.9408 52.1235 10.834 24.1856 
51.3315 10.5853 24.11 50.7582 10.4411 24.534 61.9458 10.8823 23.0829 
62.0071 10.2151 23.4181 62.2764 10.5489 22.7622 55.0434 10.9909 23.0718 
54.4442 10.5503 23.0875 53.6931 10.4713 23.3611 52.7312 10.4723 23.4584 
51.8618 10.4577 23.6108 62.0475 11.0604 22.2613 62.5527 10.4496 21.8996 
58.0113 10.9853 22.0383 57.5171 10.4008 21.9305 56.9212 10.478 22.3288 
56.0285 10.5271 22.4625 54.9731 10.3778 22.617 61.9495 11.0419 21.0858 
62.5658 10.5274 20.7277 59.1479 11.0631 20.6369 58.4655 10.7524 21.1527 
58.0076 10.5127 21.5458 61.883 10.9047 19.9529 62.5496 10.5417 19.6831 
61.0487 11.1539 20.0156 60.0005 11.1423 20.0349 59.2322 10.7729 19.7688 
58.5432 10.4737 20.3136 61.8552 10.9232 18.9222 62.5299 10.5673 18.6856 
61.0034 11.0402 18.9339 60.0068 10.8977 19.0483 59.2722 10.5711 19.0646 
58.7766 10.4058 19.5806 61.8852 10.8577 18.0111 62.447 10.5617 18.0416 
61.1578 11.0471 18.0899 60.3329 10.8601 17.8781 59.5196 10.5145 18.2868 
62.1401 10.4295 17.4577 61.4349 10.4394 16.7934 61.1236 10.8058 17.2634 
60.3816 10.6082 17.0695 59.8118 10.4515 17.4889 60.7932 10.4765 16.6707 
62.7483 10.7238 10.8542 63.0279 10.4919 11.2707 63.2558 10.4295 10.7945 
62.7575 10.5135 11.1713 62.8373 10.9848 9.99097 63.4353 10.6852 9.88058 
62.3421 10.4061 10.5713 61.9239 10.8403 9.90983 61.7228 10.5227 9.99036 
60.0047 10.7131 10.037 60.2173 10.3222 10.1989 60.2591 10.6193 9.99715 
59.7847 10.3249 10.1035 63.5866 10.5118 9.02718 61.9306 11.2341 9.14408 
61.3561 10.3193 9.58929 61.064 10.8688 9.03099 60.0072 10.3569 9.87574 
60.6017 10.2275 8.84241 63.6612 10.4869 7.85747 60.0357 10.658 8.47646 
58.9564 10.6185 8.37429 57.93 10.9428 8.03291 58.2043 10.722 8.26431 
57.7292 10.4416 7.90522 63.5318 10.5956 7.0586 56.6845 11.0731 6.87049 
57.0708 10.3895 7.50589 55.7914 10.8232 6.77122 56.0654 10.3556 7.35658 
55.422 10.3737 7.14442 63.1988 10.5846 6.47841 62.4881 10.4515 5.85837 
55.8923 11.2151 5.94771 54.9298 10.3621 6.65446 54.9629 10.8861 5.8759 
54.4357 10.4153 6.0887 61.9877 10.7638 5.45219 61.4811 10.5648 4.77026 
57.9572 11.2124 4.70332 54.986 11.1953 4.81631 53.9808 10.382 5.60862 
54.1504 10.8528 4.91277 53.5331 10.3889 4.99764 60.8106 10.4698 4.32484 
60.6042 10.9824 4.01951 60.1856 10.4945 4.19673 60.0431 10.8354 4.01419 
59.7964 10.7581 3.69405 58.0062 11.1204 3.82371 57.3307 11.0205 3.97006 
54.8864 11.1242 3.81335 53.9251 10.9373 3.88698 53.3978 10.5755 4.28603 
60.1333 10.4104 3.39557 60.3725 10.3176 2.90646 59.7702 10.8714 2.99375 
58.0744 10.9979 2.80059 57.3209 10.5589 3.07656 56.6299 10.6134 3.44192 
55.8192 10.4803 3.35122 55.0492 10.6892 3.33317 54.4612 10.3198 2.79185 
54.1317 10.818 3.19571 53.0959 10.6473 3.5401 53.2697 10.7502 3.03716 
52.6926 10.483 3.07795 59.7988 10.3976 2.45833 58.9554 10.9068 2.11942 
59.2638 10.3946 2.04056 58.2774 10.7958 1.94386 57.5809 10.4966 2.25028 
53.6776 10.5084 2.70033 52.9967 10.352 2.59644 58.7742 10.6113 1.75658 
58.1177 10.3116 1.54966 56.9359 10.018 31.8498 57.2327 9.22671 32.3636 
57.6087 9.57342 31.8925 55.7371 10.0382 31.8633 56.1597 9.30307 32.5403 
54.7708 9.83144 31.7176 55.0821 9.42462 32.3203 54.4336 9.36753 32.0801 
[...]
CELL_DATA 42316
SCALARS scalars float
LOOKUP_TABLE default
2024 2024 2024 2024 2024 2024 2024 2024 2024 
2024 2024 2024 2024 2024 2024 2024 2024 2024 
2024 2024 2024 2024 2024 2024 2024 2024 2024 
2024 2024 2024 2024 2024 2024 2024 2024 2024 
2024 2024 2024 2024 2024 2024 2024 2024 2024 
2024 2024 2024 2024 2024 2024 2024 2024 2024 
2024 2024 2024 2024 2024 2024 2024 2024 2024 
2024 2024 2024 2024 2024 2024 2024 2024 2024 
2024 2024 2024 2024 2024 2024 2024 2024 2024 
2024 2024 2024 2024 2024 2024 2024 2024 2024 
2024 2024 2024 2024 2024 2024 2024 2024 2024 
2024 2024 2024 2024 2024 2024 2024 2024 2024 
2024 2024 2024 2024 2024 2024 2024 2024 2024 
2024 2024 2024 2024 2024 2024 2024 2024 2024 
2024 2024 2024 2024 2024 2024 2024 2024 2024 
2024 2024 2024 2024 2024 2024 2024 2024 2024 
2024 2024 2024 2024 2024 2024 2024 2024 2024 
2024 2024 2024 2024 2024 2024 2024 2024 2024 
2024 2024 2024 2024 2024 2024 2024 2024 2024 
2024 2024 2024 2024 2024 2024 2024 2024 2024 
2024 2024 2024 2024 2024 2024 2024 2024 2024 
2024 2024 2024 2024 2024 2024 2024 2024 2024 
2024 2024 2024 2024 2024 2024 2024 2024 2024 
2024 2024 2024 2024 2024 2024 2024 2024 2024 
2024 2024 2024 2024 2024 2024 2024 2024 2024 
2024 2024 2024 2024 2024 2024 2024 2024 2024 
2024 2024 2024 2024 2024 2024 2024 2024 2024 
2024 2024 2024 2024 2024 2024 2024 2024 2024 
2024 2024 2024 2024 2024 2024 2024 2024 2024 
2024 2024 2024 2024 2024 2024 2024 2024 2024 
2024 2024 2024 2024 2024 2024 2024 2024 2024 
2024 2024 2024 2024 2024 2024 2024 2024 2024 
2024 2024 2024 2024 2024 2024 2024 2024 2024 
2024 2024 2024 2024 2024 2024 2024 2024 2024 
2024 2024 2024 2024 2024 2024 2024 2024 2024 
2024 2024 2024 2024 2024 2024 2024 2024 2024 
2024 2024 2024 2024 2024 2024 2024 2024 2024 
2024 2024 2024 2024 2024 2024 2024 2024 2024 
2024 2024 2024 2024 2024 2024 2024 2024 2024 
2024 2024 2024 2024 2024 2024 2024 2024 2024 
2024 2024 2024 2024 2024 2024 2024 2024 2024 
2024 2024 2024 2024 2024 2024 2024 2024 2024 
2024 2024 2024 2024 2024 2024 2024 2024 2024 
2024 2024 2024 2024 2024 2024 2024 2024 2024 
2024 2024 2024 2024 2024 2024 2024 2024 2024 
2024 2024 2024 2024 2024 2024 2024 2024 2024 
2024 2024 2024 2024 2024 2024 2024 2024 2024 
2024 2024 2024 2024 2024 2024 2024 2024 2024 
2024 2024 2024 2024 2024 2024 2024 2024 2024 
2024 2024 2024 2024 2024 2024 2024 2024 2024 
2024 2024 2024 2024 2024 2024 2024 2024 2024 
2024 2024 2024 2024 2024 2024 2024 2024 2024 
2024 2024 2024 2024 2024 2024 2024 2024 2024 
2024 2024 2024 2024 2024 2024 2024 2024 2024 
2024 2024 2024 2024 2024 2024 2024 2024 2024 
2024 2024 2024 2024 2024 2024 2024 2024 2024 
2024 2024 2024 2024 2024 2024 2024 2024 2024 
2024 2024 2024 2024 2024 2024 2024 2024 2024 
2024 2024 2024 2024 2024 2024 2024 2024 2024 
2024 2024 2024 2024 2024 2024 2024 2024 2024 
2024 2024 2024 2024 2024 2024 2024 2024 2024 
2024 2024 2024 2024 2024 2024 2024 2024 2024 
2024 2024 2024 2024 2024 2024 2024 2024 2024 
2024 2024 2024 2024 2024 2024 2024 2024 2024 
2024 2024 2024 2024 2024 2024 2024 2024 2024 
2024 2024 2024 2024 2024 2024 2024 2024 2024 
2024 2024 2024 2024 2024 2024 2024 2024 2024 
2024 2024 2024 2024 2024 2024 2024 2024 2024 
2024 2024 2024 2024 2024 2024 2024 2024 2024 
2024 2024 2024 2024 2024 2024 2024 2024 2024 
2024 2024 2024 2024 2024 2024 2024 2024 2024 
2024 2024 2024 2024 2024 2024 2024 2024 2024 
2024 2024 2024 2024 2024 2024 2024 2024 2024 
2024 2024 2024 2024 2024 2024 2024 2024 2024 
2024 2024 2024 2024 2024 2024 2024 2024 2024 
2024 2024 2024 2024 2024 2024 2024 2024 2024 
2024 2024 2024 2024 2024 2024 2024 2024 2024 
2024 2024 2024 2024 2024 2024 2024 2024 2024 
2024 2024 2024 2024 2024 2024 2024 2024 2024 
2024 2024 2024 2024 2024 2024 2024 2024 2024 
2024 2024 2024 2024 2024 2024 2024 2024 2024 
2024 2024 2024 2024 2024 2024 2024 2024 2024 
2024 2024 2024 2024 2024 2024 2024 2024 2024 
2024 2024 2024 2024 2024 2024 2024 2024 2024 
2024 2024 2024 2024 2024 2024 2024 2024 2024 
2024 2024 2024 2024 2024 2024 2024 2024 2024 
2024 2024 2024 2024 2024 2024 2024 2024 2024 
2024 2024 2024 2024 2024 2024 2024 2024 2024 
2024 2024 2024 2024 2024 2024 2024 2024 2024 
2024 2024 2024 2024 2024 2024 2024 2024 2024 
2024 2024 2024 2024 2024 2024 2024 2024 2024 
2024 2024 2024 2024 2024 2024 2024 2024 2024 
2024 2024 2024 2024 2024 2024 2024 2024 2024 
2024 2024 2024 2024 2024 2024 2024 2024 2024 
2024 2024 2024 2024 2024 2024 2024 2024 2024 
2024 2024 2024 2024 2024 2024 2024 2024 2024 
2024 2024 2024 2024 2024 2024 2024 2024 2024 
2024 2024 2024 2024 2024 2024 2024 2024 2024 
2024 2024 2024 2024 2024 2024 2024 2024 2024 
2024 2024 2024 2024 2024 2024 2024 2024 2024 
2024 2024 2024 2024 2024 2024 2024 2024 2024 
2024 2024 2024 2024 2024 2024 2024 2024 2024 
2024 2024 2024 2024 2024 2024 2024 2024 2024 
2024 2024 2024 2024 2024 2024 2024 2024 2024 
2024 2024 2024 2024 2024 2024 2024 2024 2024 
2024 2024 2024 2024 2024 2024 2024 2024 2024 
2024 2024 2024 2024 2024 2024 2024 2024 2024 
2024 2024 2024 2024 2024 2024 2024 2024 2024 
2024 2024 2024 2024 2024 2024 2024 2024 2024 
2024 2024 2024 2024 2024 2024 2024 2024 2024 
2024 2024 2024 2024 2024 2024 2024 2024 2024 
2024 2024 2024 2024 2024 2024 2024 2024 2024 
2024 2024 2024 2024 2024 2024 2024 2024 2024 
2024 2024 2024 2024 2024 2024 2024 2024 2024 
2024 2024 2024 2024 2024 2024 2024 2024 2024 
2024 2024 2024 2024 2024 2024 2024 2024 2024 
2024 2024 2024 2024 2024 2024 2024 2024 2024 
2024 2024 2024 2024 2024 2024 2024 2024 2024 
2024 2024 2024 2024 2024 2024 2024 2024 2024 
2024 2024 2024 2024 2024 2024 2024 2024 2024 
2024 2024 2024 2024 2024 2024 2024 2024 2024 
2024 2024 2024 2024 2024 2024 2024 2024 2024 
2024 2024 2024 2024 2024 2024 2024 2024 2024 
2024 2024 2024 2024 2024 2024 2024 2024 2024 
2024 2024 2024 2024 2024 2024 2024 2024 2024 
2024 2024 2024 2024 2024 2024 2024 2024 2024 
2024 2024 2024 2024 2024 2024 2024 2024 2024 
2024 2024 2024 2024 2024 2024 2024 2024 2024 
2024 2024 2024 2024 2024 2024 2024 2024 2024 
2024 2024 2024 2024 2024 2024 2024 2024 2024 
2024 2024 2024 2024 2024 2024 2024 2024 2024 
2024 2024 2024 2024 2024 2024 2024 2024 2024 
2024 2024 2024 2024 2024 2024 2024 2024 2024 
2024 2024 2024 2024 2024 2024 2024 2024 2024 
2024 2024 2024 2024 2024 2024 2024 2024 2024 
2024 2024 2024 2024 2024 2024 2024 2024 2024 
2024 2024 2024 2024 2024 2024 2024 2024 2024 
2024 2024 2024 2024 2024 2024 2024 2024 2024 
2024 2024 2024 2024 2024 2024 2024 2024 2024 
2024 2024 2024 2024 2024 2024 2024 2024 2024 
2024 2024 2024 2024 2024 2024 2024 2024 2024 
2024 2024 2024 2024 2024 2024 2024 2024 2024 
2024 2024 2024 2024 2024 2024 2024 2024 2024 
2024 2024 2024 2024 2024 2024 2024 2024 2024 
2024 2024 2024 2024 2024 2024 2024 2024 2024 
2024 2024 2024 2024 2024 2024 2024 2024 2024 
2024 2024 2024 2024 2024 2024 2024 2024 2024 
2024 2024 2024 2024 2024 2024 2024 2024 2024 
2024 2024 2024 2024 2024 2024 2024 2024 2024 
2024 2024 2024 2024 2024 2024 2024 2024 2024 
2024 2024 2024 2024 2024 2024 2024 2024 2024 
2024 2024 2024 2024 2024 2024 2024 2024 2024 
2024 2024 2024 2024 2024 2024 2024 2024 2024 
2024 2024 2024 2024 2024 2024 2024 2024 2024 
2024 2024 2024 2024 2024 2024 2024 2024 2024 
2024 2024 2024 2024 2024 2024 2024 2024 2024 
2024 2024 2024 2024 2024 2024 2024 2024 2024 
2024 2024 2024 2024 2024 2024 2024 2024 2024 
2024 2024 2024 2024 2024 2024 2024 2024 2024 
2024 2024 2024 2024 2024 2024 2024 2024 2024 
2024 2024 2024 2024 2024 2024 2024 2024 2024 
2024 2024 2024 2024 2024 2024 2024 2024 2024 
2024 2024 2024 2024 2024 2024 2024 2024 2024 
2024 2024 2024 2024 2024 2024 2024 2024 2024 
2024 2024 2024 2024 2024 2024 2024 2024 2024 
2024 2024 2024 2024 2024 2024 2024 2024 2024 
2024 2024 2024 2024 2024 2024 2024 2024 2024 
2024 2024 2024 2024 2024 2024 2024 2024 2024 
2024 2024 2024 2024 2024 2024 2024 2024 2024 
2024 2024 2024 2024 2024 2024 2024 2024 2024 
2024 2024 2024 2024 2024 2024 2024 2024 2024 
2024 2024 2024 2024 2024 2024 2024 2024 2024 
2024 2024 2024 2024 2024 2024 2024 2024 2024 
2024 2024 2024 2024 2024 2024 2024 2024 2024 
2024 2024 2024 2024 2024 2024 2024 2024 2024 
2024 2024 2024 2024 2024 2024 2024 2024 2024 
2024 2024 2024 2024 2024 2024 2024 2024 2024 
2024 2024 2024 2024 2024 2024 2024 2024 2024 
2024 2024 2024 2024 2024 2024 2024 2024 2024 
2024 2024 2024 2024 2024 2024 2024 2024 2024 
2024 2024 2024 2024 2024 2024 2024 2024 2024 
2024 2024 2024 2024 2024 2024 2024 2024 2024 
2024 2024 2024 2024 2024 2024 2024 2024 2024 
2024 2024 2024 2024 2024 2024 2024 2024 2024 
2024 2024 2024 2024 2024 2024 2024 2024 2024 
2024 2024 2024 2024 2024 2024 2024 2024 2024 
2024 2024 2024 2024 2024 2024 2024 2024 2024 
2024 2024 2024 2024 2024 2024 2024 2024 2024 
2024 2024 2024 2024 2024 2024 2024 2024 2024 
2024 2024 2024 2024 2024 2024 2024 2024 2024 
2024 2024 2024 2024 2024 2024 2024 2024 2024 
2024 2024 2024 2024 2024 2024 2024 2024 2024 
2024 2024 2024 2024 2024 2024 2024 2024 2024 
2024 2024 2024 2024 2024 2024 2024 2024 2024 
2024 2024 2024 2024 2024 2024 2024 2024 2024 
2024 2024 2024 2024 2024 2024 2024 2024 2024 
2024 2024 2024 2024 2024 2024 2024 2024 2024 
2024 2024 2024 2024 2024 2024 2024 2024 2024 
2024 2024 2024 2024 2024 2024 2024 2024 2024 
2024 2024 2024 2024 2024 2024 2024 2024 2024 
2024 2024 2024 2024 2024 2024 2024 2024 2024 
2024 2024 2024 2024 2024 2024 2024 2024 2024 
2024 2024 2024 2024 2024 2024 2024 2024 2024 
2024 2024 2024 2024 2024 2024 2024 2024 2024 
2024 2024 2024 2024 2024 2024 2024 2024 2024 
2024 2024 2024 2024 2024 2024 2024 2024 2024 
2024 2024 2024 2024 2024 2024 2024 2024 2024 
2024 2024 2024 2024 2024 2024 2024 2024 2024 
2024 2024 2024 2024 2024 2024 2024 2024 2024 
2024 2024 2024 2024 2024 2024 2024 2024 2024 
2024 2024 2024 2024 2024 2024 2024 2024 2024 
2024 2024 2024 2024 2024 2024 2024 2024 2024 
2024 2024 2024 2024 2024 2024 2024 2024 2024 
2024 2024 2024 2024 2024 2024 2024 2024 2024 
2024 2024 2024 2024 2024 2024 2024 2024 2024 
2024 2024 2024 2024 2024 2024 2024 2024 2024 
2024 2024 2024 2024 2024 2024 2024 2024 2024 
2024 2024 2024 2024 2024 2024 2024 2024 2024 
2024 2024 2024 2024 2024 2024 2024 2024 2024 
2024 2024 2024 2024 2024 2024 2024 2024 2024 
2024 2024 2024 2024 2024 2024 2024 2024 2024 
2024 2024 2024 2024 2024 2024 2024 2024 2024 
2024 2024 2024 2024 2024 2024 2024 2024 2024 
2024 2024 2024 2024 2024 2024 2024 2024 2024 
2024 2024 2024 2024 2024 2024 2024 2024 2024 
2024 2024 2024 2024 2024 2024 2024 2024 2024 
2024 2024 2024 2024 2024 2024 2024 2024 2024 
2024 2024 2024 2024 2024 2024 2024 2024 2024 
2024 2024 2024 2024 2024 2024 2024 2024 2024 
2024 2024 2024 2024 2024 2024 2024 2024 2024 
2024 2024 2024 2024 2024 2024 2024 2024 2024 
2024 2024 2024 2024 2024 2024 2024 2024 2024 
2024 2024 2024 2024 2024 2024 2024 2024 2024 
2024 2024 2024 2024 2024 2024 2024 2024 2024 
2024 2024 2024 2024 2024 2024 2024 2024 2024 
2024 2024 2024 2024 2024 2024 2024 2024 2024 
2024 2024 2024 2024 2024 2024 2024 2024 2024 
2024 2024 2024 2024 2024 2024 2024 2024 2024 
2024 2024 2024 2024 2024 2024 2024 2024 2024 
2024 2024 2024 2024 2024 2024 2024 2024 2024 
2024 2024 2024 2024 2024 2024 2024 2024 2024 
2024 2024 2024 2024 2024 2024 2024 2024 2024 
2024 2024 2024 2024 2024 2024 2024 2024 2024 
2024 2024 2024 2024 2024 2024 2024 2024 2024 
2024 2024 2024 2024 2024 2024 2024 2024 2024 
2024 2024 2024 2024 2024 2024 2024 2024 2024 
2024 2024 2024 2024 2024 2024 2024 2024 2024 
2024 2024 2024 2024 2024 2024 2024 2024 2024 
2024 2024 2024 2024 2024 2024 2024 2024 2024 
2024 2024 2024 2024 2024 2024 2024 2024 2024 
2024 2024 2024 2024 2024 2024 2024 2024 2024 
2024 2024 2024 2024 2024 2024 2024 2024 2024 
2024 2024 2024 2024 2024 2024 2024 2024 2024 
2024 2024 2024 2024 2024 2024 2024 2024 2024 
2024 2024 2024 2024 2024 2024 2024 2024 2024 
2024 2024 2024 2024 2024 2024 2024 2024 2024 
2024 2024 2024 2024 2024 2024 2024 2024 2024 
2024 2024 2024 2024 2024 2024 2024 2024 2024 
2024 2024 2024 2024 2024 2024 2024 2024 2024 
2024 2024 2024 2024 2024 2024 2024 2024 2024 
2024 2024 2024 2024 2024 2024 2024 2024 2024 
2024 2024 2024 2024 2024 2024 2024 2024 2024 
2024 2024 2024 2024 2024 2024 2024 2024 2024 
2024 2024 2024 2024 2024 2024 2024 2024 2024 
2024 2024 2024 2024 2024 2024 2024 2024 2024 
2024 2024 2024 2024 2024 2024 2024 2024 2024 
2024 2024 2024 2024 2024 2024 2024 2024 2024 
2024 2024 2024 2024 2024 2024 2024 2024 2024 
2024 2024 2024 2024 2024 2024 2024 2024 2024 
2024 2024 2024 2024 2024 2024 2024 2024 2024 
2024 2024 2024 2024 2024 2024 2024 2024 2024 
2024 2024 2024 2024 2024 2024 2024 2024 2024 
2024 2024 2024 2024 2024 2024 2024 2024 2024 
2024 2024 2024 2024 2024 2024 2024 2024 2024 
2024 2024 2024 2024 2024 2024 2024 2024 2024 
2024 2024 2024 2024 2024 2024 2024 2024 2024 
2024 2024 2024 2024 2024 2024 2024 2024 2024 
2024 2024 2024 2024 2024 2024 2024 2024 2024 
2024 2024 2024 2024 2024 2024 2024 2024 2024 
2024 2024 2024 2024 2024 2024 2024 2024 2024 
2024 2024 2024 2024 2024 2024 2024 2024 2024 
2024 2024 2024 2024 2024 2024 2024 2024 2024 
2024 2024 2024 2024 2024 2024 2024 2024 2024 
2024 2024 2024 2024 2024 2024 2024 2024 2024 
2024 2024 2024 2024 2024 2024 2024 2024 2024 
2024 2024 2024 2024 2024 2024 2024 2024 2024 
2024 2024 2024 2024 2024 2024 2024 2024 2024 
2024 2024 2024 2024 2024 2024 2024 2024 2024 
2024 2024 2024 2024 2024 2024 2024 2024 2024 
2024 2024 2024 2024 2024 2024 2024 2024 2024 
2024 2024 2024 2024 2024 2024 2024 2024 2024 
2024 2024 2024 2024 2024 2024 2024 2024 2024 
2024 2024 2024 2024 2024 2024 2024 2024 2024 
2024 2024 2024 2024 2024 2024 2024 2024 2024 
2024 2024 2024 2024 2024 2024 2024 2024 2024 
2024 2024 2024 2024 2024 2024 2024 2024 2024 
2024 2024 2024 2024 2024 2024 2024 2024 2024 
2024 2024 2024 2024 2024 2024 2024 2024 2024 
2024 2024 2024 2024 2024 2024 2024 2024 2024 
2024 2024 2024 2024 2024 2024 2024 2024 2024 
2024 2024 2024 2024 2024 2024 2024 2024 2024 
2024 2024 2024 2024 2024 2024 2024 2024 2024 
2024 2024 2024 2024 2024 2024 2024 2024 2024 
2024 2024 2024 2024 2024 2024 2024 2024 2024 
2024 2024 2024 2024 2024 2024 2024 2024 2024 
2024 2024 2024 2024 2024 2024 2024 2024 2024 
2024 2024 2024 2024 2024 2024 2024 2024 2024 
2024 2024 2024 2024 2024 2024 2024 2024 2024 
2024 2024 2024 2024 2024 2024 2024 2024 2024 
2024 2024 2024 2024 2024 2024 2024 2024 2024 
2024 2024 2024 2024 2024 2024 2024 2024 2024 
2024 2024 2024 2024 2024 2024 2024 2024 2024 
2024 2024 2024 2024 2024 2024 2024 2024 2024 
2024 2024 2024 2024 2024 2024 2024 2024 2024 
2024 2024 2024 2024 2024 2024 2024 2024 2024 
2024 2024 2024 2024 2024 2024 2024 2024 2024 
2024 2024 2024 2024 2024 2024 2024 2024 2024 
2024 2024 2024 2024 2024 2024 2024 2024 2024 
2024 2024 2024 2024 2024 2024 2024 2024 2024 
2024 2024 2024 2024 2024 2024 2024 2024 2024 
2024 2024 2024 2024 2024 2024 2024 2024 2024 
2024 2024 2024 2024 2024 2024 2024 2024 2024 
2024 2024 2024 2024 2024 2024 2024 2024 2024 
2024 2024 2024 2024 2024 2024 2024 2024 2024 
2024 2024 2024 2024 2024 2024 2024 2024 2024 
2024 2024 2024 2024 2024 2024 2024 2024 2024 
2024 2024 2024 2024 2024 2024 2024 2024 2024 
2024 2024 2024 2024 2024 2024 2024 2024 2024 
2024 2024 2024 2024 2024 2024 2024 2024 2024 
2024 2024 2024 2024 2024 2024 2024 2024 2024 
2024 2024 2024 2024 2024 2024 2024 2024 2024 
2024 2024 2024 2024 2024 2024 2024 2024 2024 
2024 2024 2024 2024 2024 2024 2024 2024 2024 
2024 2024 2024 2024 2024 2024 2024 2024 2024 
2024 2024 2024 2024 2024 2024 2024 2024 2024 
2024 2024 2024 2024 2024 2024 2024 2024 2024 
2024 2024 2024 2024 2024 2024 2024 2024 2024 
2024 2024 2024 2024 2024 2024 2024 2024 2024 
2024 2024 2024 2024 2024 2024 2024 2024 2024 
2024 2024 2024 2024 2024 2024 2024 2024 2024 
2024 2024 2024 2024 2024 2024 2024 2024 2024 
2024 2024 2024 2024 2024 2024 2024 2024 2024 
2024 2024 2024 2024 2024 2024 2024 2024 2024 
2024 2024 2024 2024 2024 2024 2024 2024 2024 
2024 2024 2024 2024 2024 2024 2024 2024 2024 
2024 2024 2024 2024 2024 2024 2024 2024 2024 
2024 2024 2024 2024 2024 2024 2024 2024 2024 
2024 2024 2024 2024 2024 2024 2024 2024 2024 
2024 2024 2024 2024 2024 2024 2024 2024 2024 
2024 2024 2024 2024 2024 2024 2024 2024 2024 
2024 2024 2024 2024 2024 2024 2024 2024 2024 
2024 2024 2024 2024 2024 2024 2024 2024 2024 
2024 2024 2024 2024 2024 2024 2024 2024 2024 
2024 2024 2024 2024 2024 2024 2024 2024 2024 
2024 2024 2024 2024 2024 2024 2024 2024 2024 
2024 2024 2024 2024 2024 2024 2024 2024 2024 
2024 2024 2024 2024 2024 2024 2024 2024 2024 
2024 2024 2024 2024 2024 2024 2024 2024 2024 
2024 2024 2024 2024 2024 2024 2024 2024 2024 
2024 2024 2024 2024 2024 2024 2024 2024 2024 
2024 2024 2024 2024 2024 2024 2024 2024 2024 
2024 2024 2024 2024 2024 2024 2024 2024 2024 
2024 2024 2024 2024 2024 2024 2024 2024 2024 
2024 2024 2024 2024 2024 2024 2024 2024 2024 
2024 2024 2024 2024 2024 2024 2024 2024 2024 
2024 2024 2024 2024 2024 2024 2024 2024 2024 
2024 2024 2024 2024 2024 2024 2024 2024 2024 
2024 2024 2024 2024 2024 2024 2024 2024 2024 
2024 2024 2024 2024 2024 2024 2024 2024 2024 
2024 2024 2024 2024 2024 2024 2024 2024 2024 
2024 2024 2024 2024 2024 2024 2024 2024 2024 
2024 2024 2024 2024 2024 2024 2024 2024 2024 
2024 2024 2024 2024 2024 2024 2024 2024 2024 
2024 2024 2024 2024 2024 2024 2024 2024 2024 
2024 2024 2024 2024 2024 2024 2024 2024 2024 
2024 2024 2024 2024 2024 2024 2024 2024 2024 
2024 2024 2024 2024 2024 2024 2024 2024 2024 
2024 2024 2024 2024 2024 2024 2024 2024 2024 
2024 2024 2024 2024 2024 2024 2024 2024 2024 
2024 2024 2024 2024 2024 2024 2024 2024 2024 
2024 2024 2024 2024 2024 2024 2024 2024 2024 
2024 2024 2024 2024 2024 2024 2024 2024 2024 
2024 2024 2024 2024 2024 2024 2024 2024 2024 
2024 2024 2024 2024 2024 2024 2024 2024 2024 
2024 2024 2024 2024 2024 2024 2024 2024 2024 
2024 2024 2024 2024 2024 2024 2024 2024 2024 
2024 2024 2024 2024 2024 2024 2024 2024 2024 
2024 2024 2024 2024 2024 2024 2024 2024 2024 
2024 2024 2024 2024 2024 2024 2024 2024 2024 
2024 2024 2024 2024 2024 2024 2024 2024 2024 
2024 2024 2024 2024 2024 2024 2024 2024 2024 
2024 2024 2024 2024 2024 2024 2024 2024 2024 
2024 2024 2024 2024 2024 2024 2024 2024 2024 
2024 2024 2024 2024 2024 2024 2024 2024 2024 
2024 2024 2024 2024 2024 2024 2024 2024 2024 
2024 2024 2024 2024 2024 2024 2024 2024 2024 
2024 2024 2024 2024 2024 2024 2024 2024 2024 
2024 2024 2024 2024 2024 2024 2024 2024 2024 
2024 2024 2024 2024 2024 2024 2024 2024 2024 
2024 2024 2024 2024 2024 2024 2024 2024 2024 
2024 2024 2024 2024 2024 2024 2024 2024 2024 
2024 2024 2024 2024 2024 2024 2024 2024 2024 
2024 2024 2024 2024 2024 2024 2024 2024 2024 
2024 2024 2024 2024 2024 2024 2024 2024 2024 
2024 2024 2024 2024 2024 2024 2024 2024 2024 
2024 2024 2024 2024 2024 2024 2024 2024 2024 
2024 2024 2024 2024 2024 2024 2024 2024 2024 
2024 2024 2024 2024 2024 2024 2024 2024 2024 
2024 2024 2024 2024 2024 2024 2024 2024 2024 
2024 2024 2024 2024 2024 2024 2024 2024 2024 
2024 2024 2024 2024 2024 2024 2024 2024 2024 
2024 2024 2024 2024 2024 2024 2024 2024 2024 
2024 2024 2024 2024 2024 2024 2024 2024 2024 
2024 2024 2024 2024 2024 2024 2024 2024 2024 
2024 2024 2024 2024 2024 2024 2024 2024 2024 
2024 2024 2024 2024 2024 2024 2024 2024 2024 
2024 2024 2024 2024 2024 2024 2024 2024 2024 
2024 2024 2024 2024 2024 2024 2024 2024 2024 
2024 2024 2024 2024 2024 2024 2024 2024 2024 
2024 2024 2024 2024 2024 2024 2024 2024 2024 
2024 2024 2024 2024 2024 2024 2024 2024 2024 
2024 2024 2024 2024 2024 2024 2024 2024 2024 
2024 2024 2024 2024 2024 2024 2024 2024 2024 
2024 2024 2024 2024 2024 2024 2024 2024 2024 
2024 2024 2024 2024 2024 2024 2024 2024 2024 
2024 2024 2024 2024 2024 2024 2024 2024 2024 
2024 2024 2024 2024 2024 2024 2024 2024 2024 
2024 2024 2024 2024 2024 2024 2024 2024 2024 
2024 2024 2024 2024 2024 2024 2024 2024 2024 
2024 2024 2024 2024 2024 2024 2024 2024 2024 
2024 2024 2024 2024 2024 2024 2024 2024 2024 
2024 2024 2024 2024 2024 2024 2024 2024 2024 
2024 2024 2024 2024 2024 2024 2024 2024 2024 