# vtk DataFile Version 4.0
vtk output
ASCII
DATASET POLYDATA
POINTS 3486 float
-43.9035 -35.3282 -0.0346577 -43.8409 -35.5437 0.375484 -43.663 -35.7634 -0.0123474 
-44.2389 -35.6703 0.159179 -44.0185 -35.6763 -0.235387 -44.2846 -36.0367 0.913912 
-44.2172 -36.718 1.28377 -43.6181 -36.3128 0.635766 -44.8974 -36.2932 1.05671 
-44.9474 -36.6333 1.37419 -45.5078 -36.8413 0.956713 -43.498 -36.6763 -0.228018 
-44.8566 -36.4268 0.430166 -44.4152 -36.2109 -0.154604 -43.9742 -36.3459 -0.396676 
-44.7188 -36.5982 -0.896108 -45.2539 -36.2945 -0.975654 -45.2286 -36.6417 -0.641068 
-45.7838 -36.2753 -1.12199 -45.7723 -36.4578 -0.781057 -46.1973 -36.6987 -0.969538 
-45.0674 -36.7084 -1.48505 -46.0378 -36.7336 -1.3408 -43.7891 -37.0457 0.892786 
-44.3395 -37.3822 1.13101 -45.1086 -37.5445 1.38766 -46.0315 -37.2523 1.05492 
-45.777 -37.337 1.34893 -46.3531 -37.885 0.909098 -44.0496 -37.8614 0.590426 
-43.4648 -37.2866 0.190158 -44.8006 -36.8251 -0.35548 -45.596 -37.2191 0.193934 
-46.0212 -37.3966 0.631994 -44.0665 -36.8905 -0.901598 -43.5273 -37.6515 -0.827315 
-45.8625 -37.1438 -0.496138 -46.4928 -37.5986 -1.15324 -44.164 -37.3369 -1.59619 
-44.7973 -37.2058 -2.03597 -44.4862 -37.8106 -2.14263 -45.387 -37.2961 -2.05917 
-45.9676 -37.3907 -1.75155 -45.2481 -37.7769 -2.35964 -53.9881 -38.4257 2.91273 
-53.8134 -38.5917 3.16096 -53.7651 -38.5936 2.75123 -54.2193 -38.5914 3.1076 
-56.0919 -38.335 2.74301 -55.8546 -38.5921 3.2098 -55.5828 -38.5041 2.57471 
-56.3834 -38.5903 3.06097 -54.1711 -38.5933 2.69789 -55.9612 -38.3174 2.17776 
-55.6664 -38.5741 1.83263 -56.474 -38.4884 2.29283 -44.8151 -37.9913 0.984025 
-45.4582 -38.4001 1.09668 -45.9867 -38.2324 1.25774 -46.4237 -38.6566 0.905967 
-56.1504 -38.5589 1.67564 -44.1108 -38.8129 0.329622 -43.5114 -38.2655 -0.147974 
-45.0692 -38.6925 0.672099 -46.4321 -37.8211 -0.0550185 -46.9396 -38.6607 0.40423 
-47.089 -38.269 -0.284713 -47.5436 -38.7735 -0.204296 -43.4671 -38.7907 -1.13324 
-46.9418 -38.1204 -0.838614 -47.3417 -38.6524 -0.973668 -43.8668 -38.1704 -1.68452 
-44.2409 -38.5459 -2.21407 -45.8914 -37.8884 -2.20689 -46.5228 -38.2604 -1.96817 
-47.0536 -38.5363 -1.57961 -45.0087 -38.6474 -2.51026 -46.0976 -38.6493 -2.44504 
-55.1491 -39.2001 5.77479 -54.7486 -39.7856 6.29246 -54.4107 -39.4506 5.83829 
-56.1986 -39.1124 5.90815 -55.6709 -39.6566 6.51452 -57.2115 -39.0774 5.87392 
-56.8399 -39.5626 6.53032 -58.1561 -39.1564 5.72895 -57.8827 -39.5861 6.29745 
-58.5537 -39.631 6.06208 -49.0877 -39.1684 4.80384 -49.0019 -39.5012 5.42873 
-48.4141 -39.4947 5.01691 -50.181 -39.1428 4.88872 -49.6863 -39.5116 5.52392 
-51.2109 -39.1481 4.85464 -50.7051 -39.5108 5.51567 -52.2102 -39.1632 4.83948 
-51.7142 -39.5192 5.47447 -53.2276 -39.17 4.84771 -52.7209 -39.5398 5.46471 
-54.2802 -39.1465 5.05352 -53.6744 -39.5212 5.56502 -55.1537 -39.0407 4.87651 
-55.9805 -39.0098 5.01911 -56.9661 -38.9721 5.03407 -57.9766 -38.9517 4.96662 
-59.0364 -39.6494 5.61438 -58.8534 -39.1588 4.91503 -59.4748 -39.6383 4.98066 
-48.2282 -39.1533 4.04717 -47.8673 -39.4744 4.49407 -47.4961 -39.5491 3.80251 
-49.0769 -38.981 3.83636 -49.9376 -39.0002 3.99507 -50.9569 -39.0178 3.99041 
-51.9615 -39.0195 3.98675 -52.8226 -39.0185 4.12431 -53.9117 -38.9145 3.83572 
-54.8305 -39.0228 4.17104 -55.937 -38.922 3.86242 -57.0149 -39.0054 3.98312 
-58.0324 -38.9729 3.96569 -59.0944 -39.0589 3.87068 -59.6086 -39.4462 4.25574 
-48.0412 -39.1979 3.02548 -47.544 -39.5656 2.86675 -48.9341 -38.9774 2.96987 
-49.9628 -38.957 2.94206 -50.9844 -38.9956 2.94808 -51.9927 -39.0089 2.93846 
-53.1251 -38.8968 3.06879 -54.896 -38.815 3.05568 -57.0366 -38.8836 2.81438 
-58.0648 -39.011 2.91868 -58.9297 -38.988 3.04303 -59.9291 -39.3746 3.49969 
-59.7208 -39.2148 2.78071 -60.2678 -39.7656 3.17413 -48.0868 -39.4474 2.36298 
-48.5444 -39.5822 1.78389 -48.915 -39.1704 2.04069 -49.9675 -38.9702 1.91053 
-51.0209 -38.9736 1.87118 -52.028 -39.0072 1.8687 -53.0095 -39.0152 1.89655 
-54.056 -38.908 2.074 -55.1067 -38.8626 1.90383 -56.7969 -38.8651 1.69494 
-57.7551 -39.1427 1.82019 -58.8784 -39.1836 2.13353 -59.4316 -39.4393 2.09032 
-59.8378 -39.8791 2.47819 -45.9263 -38.8215 0.930481 -49.1417 -39.468 1.33417 
-49.504 -39.7143 0.723429 -49.8133 -39.2049 1.15191 -50.7458 -39.1286 1.02671 
-51.7605 -39.1381 1.0058 -52.759 -39.1493 0.998365 -53.717 -39.1805 1.02389 
-54.7026 -39.1767 1.04974 -55.8373 -39.0327 1.13339 -56.903 -39.2471 1.02517 
-57.5773 -39.4732 1.08243 -58.2604 -39.5877 1.50011 -58.8629 -39.6515 1.78154 
-44.2256 -39.7271 0.245592 -43.5814 -39.343 -0.301175 -45.0215 -39.5549 0.455894 
-46.1196 -39.2814 0.58758 -46.8595 -39.7143 0.562118 -47.9585 -39.2372 -0.193052 
-47.7031 -39.3658 0.386803 -48.2933 -39.5945 0.106711 -50.2224 -39.5389 0.656194 
-51.0566 -39.7639 0.665604 -52.1791 -39.4965 0.566464 -53.113 -39.6282 0.419155 
-54.2478 -39.5483 0.404622 -55.2602 -39.5411 0.398299 -56.2627 -39.5535 0.427913 
-57.0766 -39.6116 0.604077 -43.3784 -39.5343 -1.06733 -47.6524 -39.3824 -0.938166 
-48.1913 -39.5838 -0.450727 -43.8045 -38.922 -1.95385 -43.546 -39.7 -1.85244 
-46.8994 -38.9779 -2.16711 -47.2385 -39.4213 -1.79064 -44.2669 -39.4478 -2.44962 
-45.1571 -39.647 -2.61474 -45.8429 -39.3644 -2.58235 -46.6655 -39.6506 -2.35374 
-56.2956 -40.0375 6.98632 -55.9474 -40.8549 7.28842 -55.5486 -40.3172 6.93364 
-57.069 -40.1044 6.94234 -56.9288 -40.6347 7.26284 -57.5756 -40.6299 7.03705 
-49.0434 -40.0125 5.83666 -49.0726 -40.5305 6.42464 -48.4825 -40.5249 5.99625 
-50.2072 -40.0193 6.02381 -49.7304 -40.5249 6.52331 -51.2301 -40.0218 5.99135 
-50.7224 -40.5242 6.51298 -52.2298 -40.0371 5.96535 -51.7085 -40.5317 6.47502 
-53.2387 -40.0289 5.98217 -52.7222 -40.5429 6.46386 -54.0608 -39.8674 6.05589 
-53.881 -40.4326 6.48037 -54.8751 -40.3763 6.69685 -57.9086 -40.3614 6.66552 
-58.9949 -39.9849 6.00909 -58.8594 -40.4309 6.30545 -59.5034 -40.5087 5.96979 
-47.8986 -39.9921 4.97164 -47.929 -40.5125 5.46661 -47.4151 -40.5084 4.95518 
-60.0257 -40.0392 4.63164 -60.0052 -40.5112 5.49181 -60.4975 -40.6464 4.95792 
-47.0766 -40.1223 4.12847 -46.8348 -40.6532 4.49579 -46.6 -40.6237 3.86671 
-60.1428 -39.7945 3.87195 -60.5045 -40.4914 3.94798 -47.0203 -40.0082 3.05861 
-46.5583 -40.6378 2.92507 -60.3518 -40.536 2.87646 -47.1164 -40.1665 1.93603 
-46.4956 -40.6322 1.80657 -47.8289 -39.843 2.00744 -59.1523 -39.9242 2.04055 
-58.6727 -40.2147 1.68461 -59.3122 -40.4642 2.18491 -59.9707 -40.6511 2.38826 
-47.1768 -40.037 1.02879 -46.5282 -40.3848 0.911814 -48.0528 -39.8956 0.910545 
-48.734 -39.8293 1.11073 -51.1244 -40.3341 0.968854 -50.6799 -40.4316 0.952552 
-50.9317 -40.6284 1.16182 -51.3459 -40.6558 0.869721 -57.9915 -39.899 0.748002 
-59.0994 -40.2582 0.849901 -58.9543 -40.5612 1.49354 -59.5813 -40.8322 0.831296 
-43.8607 -40.1018 -0.164347 -44.2247 -40.4099 0.0884574 -44.6907 -40.6148 0.363375 
-45.7988 -40.479 0.597857 -49.0253 -40.0268 -0.107638 -50.0567 -40.2999 0.457537 
-49.7131 -40.5262 -0.0415949 -52.001 -40.2075 0.427091 -52.9404 -40.1957 0.0194809 
-52.5727 -40.6094 -0.193817 -53.9172 -40.0228 -0.161942 -55.0101 -39.8734 -0.212002 
-56.018 -39.8763 -0.222245 -56.9897 -39.8796 0.0383036 -57.8236 -40.1156 -0.269425 
-58.7996 -40.1407 0.0472752 -59.9328 -40.4297 0.318158 -59.7618 -40.2673 -0.0234263 
-60.2112 -40.4737 -0.122726 -43.8617 -40.7024 -0.249018 -43.4738 -40.4012 -0.907165 
-48.0834 -39.94 -1.09088 -48.782 -40.1652 -1.33623 -49.8563 -40.4828 -0.479514 
-49.6945 -40.3181 -1.05871 -50.3387 -40.7704 -0.898173 -53.3229 -40.5395 -0.47534 
-54.0953 -40.4219 -0.723589 -54.4269 -40.6737 -1.44883 -54.9405 -40.1052 -1.02114 
-55.8381 -39.9948 -0.926269 -56.8205 -40.1256 -1.04161 -57.58 -40.4945 -0.959074 
-58.3262 -40.7054 -0.614069 -59.2697 -40.5093 -0.440259 -59.8559 -40.7542 -0.36186 
-43.4939 -40.7994 -1.95168 -47.0064 -40.0628 -2.07949 -46.6746 -40.6021 -2.34317 
-47.3804 -40.4763 -1.81811 -47.6388 -40.554 -2.11742 -47.9504 -40.3029 -1.8674 
-48.3653 -40.452 -1.96708 -49.0324 -40.752 -1.64492 -50.049 -40.7681 -1.39048 
-55.0454 -40.2234 -1.90124 -54.7614 -40.7154 -2.16731 -55.8537 -40.1278 -1.88372 
-56.4395 -40.386 -2.01159 -56.8863 -40.7964 -1.59775 -43.9196 -40.3461 -2.46972 
-44.8929 -40.6522 -2.73742 -45.9241 -40.2711 -2.55365 -47.9069 -40.5327 -2.20407 
-55.2693 -40.4662 -2.42495 -55.7983 -40.5749 -2.45784 -49.111 -41.0326 6.81557 
-48.9324 -41.86 7.32036 -48.4355 -41.4372 6.8307 -50.2667 -41.0288 6.99841 
-50.0038 -41.649 7.36 -51.2579 -41.0373 6.9735 -50.998 -41.6604 7.34435 
-52.2398 -41.0512 6.95593 -51.9833 -41.6759 7.32559 -53.2503 -41.0706 6.9455 
-52.9733 -41.6936 7.31616 -54.2683 -41.0456 6.96765 -53.9759 -41.7139 7.30254 
-55.0778 -40.8602 7.04901 -55.0911 -41.5633 7.3327 -55.9736 -41.5638 7.46447 
-56.8354 -41.6498 7.55925 -58.1745 -41.0892 6.8951 -57.8713 -41.4488 7.27889 
-58.6081 -41.7271 6.98374 -47.9782 -41.0124 5.98217 -47.9829 -41.4898 6.47764 
-47.4694 -41.5273 5.99004 -58.9475 -41.4192 6.61444 -60.0263 -41.0423 5.96396 
-59.8797 -41.4882 6.28076 -60.5224 -41.553 5.97164 -47.1085 -41.079 5.18763 
-46.871 -41.6858 5.53242 -46.5757 -41.4524 4.80949 -54.1507 -41.1452 4.78622 
-53.3629 -41.4131 4.88294 -53.9012 -41.9014 5.38275 -54.9631 -41.6797 5.4355 
-55.2672 -41.0838 4.92543 -56.0014 -41.597 5.43653 -56.2972 -41.066 4.88744 
-56.7778 -41.4431 5.29944 -57.0377 -41.1889 4.79142 -57.2859 -41.6952 5.02989 
-60.9793 -41.0732 4.67135 -61.0247 -41.5047 5.50896 -61.5126 -41.6302 4.98263 
-46.4296 -41.4778 3.94129 -51.1395 -41.2759 3.98733 -50.6034 -41.7854 4.24775 
-50.9822 -41.4647 4.33986 -51.6363 -41.4663 4.42847 -52.0175 -41.1964 3.78759 
-52.6085 -41.465 4.56388 -53.2362 -41.0816 3.97454 -54.1589 -40.9521 3.74572 
-55.0107 -40.9195 3.95461 -56.0115 -40.9171 3.97395 -56.9009 -41.0649 3.99829 
-57.544 -41.6445 4.29132 -60.8856 -41.1835 3.90243 -61.469 -41.7214 4.06048 
-46.333 -41.4388 2.90344 -51.1701 -41.3906 3.70166 -51.8484 -41.4868 3.39754 
-52.7576 -41.2084 3.11332 -52.5215 -41.5952 2.98796 -53.7294 -41.1194 2.99192 
-54.8723 -41.0817 2.88323 -55.8273 -40.9499 3.08057 -56.657 -41.1287 2.89188 
[...]
CELL_DATA 7000
SCALARS scalars float
LOOKUP_TABLE default
1001 1001 1001 1001 1001 1001 1001 1001 1001 
1001 1001 1001 1001 1001 1001 1001 1001 1001 
1001 1001 1001 1001 1001 1001 1001 1001 1001 
1001 1001 1001 1001 1001 1001 1001 1001 1001 
1001 1001 1001 1001 1001 1001 1001 1001 1001 
1001 1001 1001 1001 1001 1001 1001 1001 1001 
1001 1001 1001 1001 1001 1001 1001 1001 1001 
1001 1001 1001 1001 1001 1001 1001 1001 1001 
1001 1001 1001 1001 1001 1001 1001 1001 1001 
1001 1001 1001 1001 1001 1001 1001 1001 1001 
1001 1001 1001 1001 1001 1001 1001 1001 1001 
1001 1001 1001 1001 1001 1001 1001 1001 1001 
1001 1001 1001 1001 1001 1001 1001 1001 1001 
1001 1001 1001 1001 1001 1001 1001 1001 1001 
1001 1001 1001 1001 1001 1001 1001 1001 1001 
1001 1001 1001 1001 1001 1001 1001 1001 1001 
1001 1001 1001 1001 1001 1001 1001 1001 1001 
1001 1001 1001 1001 1001 1001 1001 1001 1001 
1001 1001 1001 1001 1001 1001 1001 1001 1001 
1001 1001 1001 1001 1001 1001 1001 1001 1001 
1001 1001 1001 1001 1001 1001 1001 1001 1001 
1001 1001 1001 1001 1001 1001 1001 1001 1001 
1001 1001 1001 1001 1001 1001 1001 1001 1001 
1001 1001 1001 1001 1001 1001 1001 1001 1001 
1001 1001 1001 1001 1001 1001 1001 1001 1001 
1001 1001 1001 1001 1001 1001 1001 1001 1001 
1001 1001 1001 1001 1001 1001 1001 1001 1001 
1001 1001 1001 1001 1001 1001 1001 1001 1001 
1001 1001 1001 1001 1001 1001 1001 1001 1001 
1001 1001 1001 1001 1001 1001 1001 1001 1001 
1001 1001 1001 1001 1001 1001 1001 1001 1001 
1001 1001 1001 1001 1001 1001 1001 1001 1001 
1001 1001 1001 1001 1001 1001 1001 1001 1001 
1001 1001 1001 1001 1001 1001 1001 1001 1001 
1001 1001 1001 1001 1001 1001 1001 1001 1001 
1001 1001 1001 1001 1001 1001 1001 1001 1001 
1001 1001 1001 1001 1001 1001 1001 1001 1001 
1001 1001 1001 1001 1001 1001 1001 1001 1001 
1001 1001 1001 1001 1001 1001 1001 1001 1001 
1001 1001 1001 1001 1001 1001 1001 1001 1001 
1001 1001 1001 1001 1001 1001 1001 1001 1001 
1001 1001 1001 1001 1001 1001 1001 1001 1001 
1001 1001 1001 1001 1001 1001 1001 1001 1001 
1001 1001 1001 1001 1001 1001 1001 1001 1001 
1001 1001 1001 1001 1001 1001 1001 1001 1001 
1001 1001 1001 1001 1001 1001 1001 1001 1001 
1001 1001 1001 1001 1001 1001 1001 1001 1001 
1001 1001 1001 1001 1001 1001 1001 1001 1001 
1001 1001 1001 1001 1001 1001 1001 1001 1001 
1001 1001 1001 1001 1001 1001 1001 1001 1001 
1001 1001 1001 1001 1001 1001 1001 1001 1001 
1001 1001 1001 1001 1001 1001 1001 1001 1001 
1001 1001 1001 1001 1001 1001 1001 1001 1001 
1001 1001 1001 1001 1001 1001 1001 1001 1001 
1001 1001 1001 1001 1001 1001 1001 1001 1001 
1001 1001 1001 1001 1001 1001 1001 1001 1001 
1001 1001 1001 1001 1001 1001 1001 1001 1001 
1001 1001 1001 1001 1001 1001 1001 1001 1001 
1001 1001 1001 1001 1001 1001 1001 1001 1001 
1001 1001 1001 1001 1001 1001 1001 1001 1001 
1001 1001 1001 1001 1001 1001 1001 1001 1001 
1001 1001 1001 1001 1001 1001 1001 1001 1001 
1001 1001 1001 1001 1001 1001 1001 1001 1001 
1001 1001 1001 1001 1001 1001 1001 1001 1001 
1001 1001 1001 1001 1001 1001 1001 1001 1001 
1001 1001 1001 1001 1001 1001 1001 1001 1001 
1001 1001 1001 1001 1001 1001 1001 1001 1001 
1001 1001 1001 1001 1001 1001 1001 1001 1001 
1001 1001 1001 1001 1001 1001 1001 1001 1001 
1001 1001 1001 1001 1001 1001 1001 1001 1001 
1001 1001 1001 1001 1001 1001 1001 1001 1001 
1001 1001 1001 1001 1001 1001 1001 1001 1001 
1001 1001 1001 1001 1001 1001 1001 1001 1001 
1001 1001 1001 1001 1001 1001 1001 1001 1001 
1001 1001 1001 1001 1001 1001 1001 1001 1001 
1001 1001 1001 1001 1001 1001 1001 1001 1001 
1001 1001 1001 1001 1001 1001 1001 1001 1001 
1001 1001 1001 1001 1001 1001 1001 1001 1001 
1001 1001 1001 1001 1001 1001 1001 1001 1001 
1001 1001 1001 1001 1001 1001 1001 1001 1001 
1001 1001 1001 1001 1001 1001 1001 1001 1001 
1001 1001 1001 1001 1001 1001 1001 1001 1001 
1001 1001 1001 1001 1001 1001 1001 1001 1001 
1001 1001 1001 1001 1001 1001 1001 1001 1001 
1001 1001 1001 1001 1001 1001 1001 1001 1001 
1001 1001 1001 1001 1001 1001 1001 1001 1001 
1001 1001 1001 1001 1001 1001 1001 1001 1001 
1001 1001 1001 1001 1001 1001 1001 1001 1001 
1001 1001 1001 1001 1001 1001 1001 1001 1001 
1001 1001 1001 1001 1001 1001 1001 1001 1001 
1001 1001 1001 1001 1001 1001 1001 1001 1001 
1001 1001 1001 1001 1001 1001 1001 1001 1001 
1001 1001 1001 1001 1001 1001 1001 1001 1001 
1001 1001 1001 1001 1001 1001 1001 1001 1001 
1001 1001 1001 1001 1001 1001 1001 1001 1001 
1001 1001 1001 1001 1001 1001 1001 1001 1001 
1001 1001 1001 1001 1001 1001 1001 1001 1001 
1001 1001 1001 1001 1001 1001 1001 1001 1001 
1001 1001 1001 1001 1001 1001 1001 1001 1001 
1001 1001 1001 1001 1001 1001 1001 1001 1001 
1001 1001 1001 1001 1001 1001 1001 1001 1001 
1001 1001 1001 1001 1001 1001 1001 1001 1001 
1001 1001 1001 1001 1001 1001 1001 1001 1001 
1001 1001 1001 1001 1001 1001 1001 1001 1001 
1001 1001 1001 1001 1001 1001 1001 1001 1001 
1001 1001 1001 1001 1001 1001 1001 1001 1001 
1001 1001 1001 1001 1001 1001 1001 1001 1001 
1001 1001 1001 1001 1001 1001 1001 1001 1001 
1001 1001 1001 1001 1001 1001 1001 1001 1001 
1001 1001 1001 1001 1001 1001 1001 1001 1001 
1001 1001 1001 1001 1001 1001 1001 1001 1001 
1001 1001 1001 1001 1001 1001 1001 1001 1001 
1001 1001 1001 1001 1001 1001 1001 1001 1001 
1001 1001 1001 1001 1001 1001 1001 1001 1001 
1001 1001 1001 1001 1001 1001 1001 1001 1001 
1001 1001 1001 1001 1001 1001 1001 1001 1001 
1001 1001 1001 1001 1001 1001 1001 1001 1001 
1001 1001 1001 1001 1001 1001 1001 1001 1001 
1001 1001 1001 1001 1001 1001 1001 1001 1001 
1001 1001 1001 1001 1001 1001 1001 1001 1001 
1001 1001 1001 1001 1001 1001 1001 1001 1001 
1001 1001 1001 1001 1001 1001 1001 1001 1001 
1001 1001 1001 1001 1001 1001 1001 1001 1001 
1001 1001 1001 1001 1001 1001 1001 1001 1001 
1001 1001 1001 1001 1001 1001 1001 1001 1001 
1001 1001 1001 1001 1001 1001 1001 1001 1001 
1001 1001 1001 1001 1001 1001 1001 1001 1001 
1001 1001 1001 1001 1001 1001 1001 1001 1001 
1001 1001 1001 1001 1001 1001 1001 1001 1001 
1001 1001 1001 1001 1001 1001 1001 1001 1001 
1001 1001 1001 1001 1001 1001 1001 1001 1001 
1001 1001 1001 1001 1001 1001 1001 1001 1001 
1001 1001 1001 1001 1001 1001 1001 1001 1001 
1001 1001 1001 1001 1001 1001 1001 1001 1001 
1001 1001 1001 1001 1001 1001 1001 1001 1001 
1001 1001 1001 1001 1001 1001 1001 1001 1001 
1001 1001 1001 1001 1001 1001 1001 1001 1001 
1001 1001 1001 1001 1001 1001 1001 1001 1001 
1001 1001 1001 1001 1001 1001 1001 1001 1001 
1001 1001 1001 1001 1001 1001 1001 1001 1001 
1001 1001 1001 1001 1001 1001 1001 1001 1001 
1001 1001 1001 1001 1001 1001 1001 1001 1001 
1001 1001 1001 1001 1001 1001 1001 1001 1001 
1001 1001 1001 1001 1001 1001 1001 1001 1001 
1001 1001 1001 1001 1001 1001 1001 1001 1001 
1001 1001 1001 1001 1001 1001 1001 1001 1001 
1001 1001 1001 1001 1001 1001 1001 1001 1001 
1001 1001 1001 1001 1001 1001 1001 1001 1001 
1001 1001 1001 1001 1001 1001 1001 1001 1001 
1001 1001 1001 1001 1001 1001 1001 1001 1001 
1001 1001 1001 1001 1001 1001 1001 1001 1001 
1001 1001 1001 1001 1001 1001 1001 1001 1001 
1001 1001 1001 1001 1001 1001 1001 1001 1001 
1001 1001 1001 1001 1001 1001 1001 1001 1001 
1001 1001 1001 1001 1001 1001 1001 1001 1001 
1001 1001 1001 1001 1001 1001 1001 1001 1001 
1001 1001 1001 1001 1001 1001 1001 1001 1001 
1001 1001 1001 1001 1001 1001 1001 1001 1001 
1001 1001 1001 1001 1001 1001 1001 1001 1001 
1001 1001 1001 1001 1001 1001 1001 1001 1001 
1001 1001 1001 1001 1001 1001 1001 1001 1001 
1001 1001 1001 1001 1001 1001 1001 1001 1001 
1001 1001 1001 1001 1001 1001 1001 1001 1001 
1001 1001 1001 1001 1001 1001 1001 1001 1001 
1001 1001 1001 1001 1001 1001 1001 1001 1001 
1001 1001 1001 1001 1001 1001 1001 1001 1001 
1001 1001 1001 1001 1001 1001 1001 1001 1001 
1001 1001 1001 1001 1001 1001 1001 1001 1001 
1001 1001 1001 1001 1001 1001 1001 1001 1001 
1001 1001 1001 1001 1001 1001 1001 1001 1001 
1001 1001 1001 1001 1001 1001 1001 1001 1001 
1001 1001 1001 1001 1001 1001 1001 1001 1001 
1001 1001 1001 1001 1001 1001 1001 1001 1001 
1001 1001 1001 1001 1001 1001 1001 1001 1001 
1001 1001 1001 1001 1001 1001 1001 1001 1001 
1001 1001 1001 1001 1001 1001 1001 1001 1001 
1001 1001 1001 1001 1001 1001 1001 1001 1001 
1001 1001 1001 1001 1001 1001 1001 1001 1001 
1001 1001 1001 1001 1001 1001 1001 1001 1001 
1001 1001 1001 1001 1001 1001 1001 1001 1001 
1001 1001 1001 1001 1001 1001 1001 1001 1001 
1001 1001 1001 1001 1001 1001 1001 1001 1001 
1001 1001 1001 1001 1001 1001 1001 1001 1001 
1001 1001 1001 1001 1001 1001 1001 1001 1001 
1001 1001 1001 1001 1001 1001 1001 1001 1001 
1001 1001 1001 1001 1001 1001 1001 1001 1001 
1001 1001 1001 1001 1001 1001 1001 1001 1001 
1001 1001 1001 1001 1001 1001 1001 1001 1001 
1001 1001 1001 1001 1001 1001 1001 1001 1001 
1001 1001 1001 1001 1001 1001 1001 1001 1001 
1001 1001 1001 1001 1001 1001 1001 1001 1001 
1001 1001 1001 1001 1001 1001 1001 1001 1001 
1001 1001 1001 1001 1001 1001 1001 1001 1001 
1001 1001 1001 1001 1001 1001 1001 1001 1001 
1001 1001 1001 1001 1001 1001 1001 1001 1001 
1001 1001 1001 1001 1001 1001 1001 1001 1001 
1001 1001 1001 1001 1001 1001 1001 1001 1001 
1001 1001 1001 1001 1001 1001 1001 1001 1001 
1001 1001 1001 1001 1001 1001 1001 1001 1001 
1001 1001 1001 1001 1001 1001 1001 1001 1001 
1001 1001 1001 1001 1001 1001 1001 1001 1001 
1001 1001 1001 1001 1001 1001 1001 1001 1001 
1001 1001 1001 1001 1001 1001 1001 1001 1001 
1001 1001 1001 1001 1001 1001 1001 1001 1001 
1001 1001 1001 1001 1001 1001 1001 1001 1001 
1001 1001 1001 1001 1001 1001 1001 1001 1001 
1001 1001 1001 1001 1001 1001 1001 1001 1001 
1001 1001 1001 1001 1001 1001 1001 1001 1001 
1001 1001 1001 1001 1001 1001 1001 1001 1001 
1001 1001 1001 1001 1001 1001 1001 1001 1001 
1001 1001 1001 1001 1001 1001 1001 1001 1001 
1001 1001 1001 1001 1001 1001 1001 1001 1001 
1001 1001 1001 1001 1001 1001 1001 1001 1001 
1001 1001 1001 1001 1001 1001 1001 1001 1001 
1001 1001 1001 1001 1001 1001 1001 1001 1001 
1001 1001 1001 1001 1001 1001 1001 1001 1001 
1001 1001 1001 1001 1001 1001 1001 1001 1001 
1001 1001 1001 1001 1001 1001 1001 1001 1001 
1001 1001 1001 1001 1001 1001 1001 1001 1001 
1001 1001 1001 1001 1001 1001 1001 1001 1001 
1001 1001 1001 1001 1001 1001 1001 1001 1001 
1001 1001 1001 1001 1001 1001 1001 1001 1001 
1001 1001 1001 1001 1001 1001 1001 1001 1001 
1001 1001 1001 1001 1001 1001 1001 1001 1001 
1001 1001 1001 1001 1001 1001 1001 1001 1001 
1001 1001 1001 1001 1001 1001 1001 1001 1001 
1001 1001 1001 1001 1001 1001 1001 1001 1001 
1001 1001 1001 1001 1001 1001 1001 1001 1001 
1001 1001 1001 1001 1001 1001 1001 1001 1001 
1001 1001 1001 1001 1001 1001 1001 1001 1001 
1001 1001 1001 1001 1001 1001 1001 1001 1001 
1001 1001 1001 1001 1001 1001 1001 1001 1001 
1001 1001 1001 1001 1001 1001 1001 1001 1001 
1001 1001 1001 1001 1001 1001 1001 1001 1001 
1001 1001 1001 1001 1001 1001 1001 1001 1001 
1001 1001 1001 1001 1001 1001 1001 1001 1001 
1001 1001 1001 1001 1001 1001 1001 1001 1001 
1001 1001 1001 1001 1001 1001 1001 1001 1001 
1001 1001 1001 1001 1001 1001 1001 1001 1001 
1001 1001 1001 1001 1001 1001 1001 1001 1001 
1001 1001 1001 1001 1001 1001 1001 1001 1001 
1001 1001 1001 1001 1001 1001 1001 1001 1001 
1001 1001 1001 1001 1001 1001 1001 1001 1001 
1001 1001 1001 1001 1001 1001 1001 1001 1001 
1001 1001 1001 1001 1001 1001 1001 1001 1001 
1001 1001 1001 1001 1001 1001 1001 1001 1001 
1001 1001 1001 1001 1001 1001 1001 1001 1001 
1001 1001 1001 1001 1001 1001 1001 1001 1001 
1001 1001 1001 1001 1001 1001 1001 1001 1001 
1001 1001 1001 1001 1001 1001 1001 1001 1001 
1001 1001 1001 1001 1001 1001 1001 1001 1001 
1001 1001 1001 1001 1001 1001 1001 1001 1001 
1001 1001 1001 1001 1001 1001 1001 1001 1001 
1001 1001 1001 1001 1001 1001 1001 1001 1001 
1001 1001 1001 1001 1001 1001 1001 1001 1001 
1001 1001 1001 1001 1001 1001 1001 1001 1001 
1001 1001 1001 1001 1001 1001 1001 1001 1001 
1001 1001 1001 1001 1001 1001 1001 1001 1001 
1001 1001 1001 1001 1001 1001 1001 1001 1001 
1001 1001 1001 1001 1001 1001 1001 1001 1001 
1001 1001 1001 1001 1001 1001 1001 1001 1001 
1001 1001 1001 1001 1001 1001 1001 1001 1001 
1001 1001 1001 1001 1001 1001 1001 1001 1001 
1001 1001 1001 1001 1001 1001 1001 1001 1001 
1001 1001 1001 1001 1001 1001 1001 1001 1001 
1001 1001 1001 1001 1001 1001 1001 1001 1001 
1001 1001 1001 1001 1001 1001 1001 1001 1001 
1001 1001 1001 1001 1001 1001 1001 1001 1001 
1001 1001 1001 1001 1001 1001 1001 1001 1001 
1001 1001 1001 1001 1001 1001 1001 1001 1001 
1001 1001 1001 1001 1001 1001 1001 1001 1001 
1001 1001 1001 1001 1001 1001 1001 1001 1001 
1001 1001 1001 1001 1001 1001 1001 1001 1001 
1001 1001 1001 1001 1001 1001 1001 1001 1001 
1001 1001 1001 1001 1001 1001 1001 1001 1001 
1001 1001 1001 1001 1001 1001 1001 1001 1001 
1001 1001 1001 1001 1001 1001 1001 1001 1001 
1001 1001 1001 1001 1001 1001 1001 1001 1001 
1001 1001 1001 1001 1001 1001 1001 1001 1001 
1001 1001 1001 1001 1001 1001 1001 1001 1001 
1001 1001 1001 1001 1001 1001 1001 1001 1001 
1001 1001 1001 1001 1001 1001 1001 1001 1001 
1001 1001 1001 1001 1001 1001 1001 1001 1001 
1001 1001 1001 1001 1001 1001 1001 1001 1001 
1001 1001 1001 1001 1001 1001 1001 1001 1001 
1001 1001 1001 1001 1001 1001 1001 1001 1001 
1001 1001 1001 1001 1001 1001 1001 1001 1001 
1001 1001 1001 1001 1001 1001 1001 1001 1001 
1001 1001 1001 1001 1001 1001 1001 1001 1001 
1001 1001 1001 1001 1001 1001 1001 1001 1001 
1001 1001 1001 1001 1001 1001 1001 1001 1001 
1001 1001 1001 1001 1001 1001 1001 1001 1001 
1001 1001 1001 1001 1001 1001 1001 1001 1001 
1001 1001 1001 1001 1001 1001 1001 1001 1001 
1001 1001 1001 1001 1001 1001 1001 1001 1001 
1001 1001 1001 1001 1001 1001 1001 1001 1001 
1001 1001 1001 1001 1001 1001 1001 1001 1001 
1001 1001 1001 1001 1001 1001 1001 1001 1001 
1001 1001 1001 1001 1001 1001 1001 1001 1001 
1001 1001 1001 1001 1001 1001 1001 1001 1001 
1001 1001 1001 1001 1001 1001 1001 1001 1001 
1001 1001 1001 1001 1001 1001 1001 1001 1001 
1001 1001 1001 1001 1001 1001 1001 1001 1001 
1001 1001 1001 1001 1001 1001 1001 1001 1001 
1001 1001 1001 1001 1001 1001 1001 1001 1001 
1001 1001 1001 1001 1001 1001 1001 1001 1001 
1001 1001 1001 1001 1001 1001 1001 1001 1001 
1001 1001 1001 1001 1001 1001 1001 1001 1001 
1001 1001 1001 1001 1001 1001 1001 1001 1001 
1001 1001 1001 1001 1001 1001 1001 1001 1001 
1001 1001 1001 1001 1001 1001 1001 1001 1001 
1001 1001 1001 1001 1001 1001 1001 1001 1001 
1001 1001 1001 1001 1001 1001 1001 1001 1001 
1001 1001 1001 1001 1001 1001 1001 1001 1001 
1001 1001 1001 1001 1001 1001 1001 1001 1001 
1001 1001 1001 1001 1001 1001 1001 1001 1001 
1001 1001 1001 1001 1001 1001 1001 1001 1001 
1001 1001 1001 1001 1001 1001 1001 1001 1001 
1001 1001 1001 1001 1001 1001 1001 1001 1001 
1001 1001 1001 1001 1001 1001 1001 1001 1001 
1001 1001 1001 1001 1001 1001 1001 1001 1001 
1001 1001 1001 1001 1001 1001 1001 1001 1001 
1001 1001 1001 1001 1001 1001 1001 1001 1001 
1001 1001 1001 1001 1001 1001 1001 1001 1001 
1001 1001 1001 1001 1001 1001 1001 1001 1001 
1001 1001 1001 1001 1001 1001 1001 1001 1001 
1001 1001 1001 1001 1001 1001 1001 1001 1001 
1001 1001 1001 1001 1001 1001 1001 1001 1001 
1001 1001 1001 1001 1001 1001 1001 1001 1001 
1001 1001 1001 1001 1001 1001 1001 1001 1001 
1001 1001 1001 1001 1001 1001 1001 1001 1001 
1001 1001 1001 1001 1001 1001 1001 1001 1001 
1001 1001 1001 1001 1001 1001 1001 1001 1001 
1001 1001 1001 1001 1001 1001 1001 1001 1001 
1001 1001 1001 1001 1001 1001 1001 1001 1001 
1001 1001 1001 1001 1001 1001 1001 1001 1001 
1001 1001 1001 1001 1001 1001 1001 1001 1001 
1001 1001 1001 1001 1001 1001 1001 1001 1001 
1001 1001 1001 1001 1001 1001 1001 1001 1001 
1001 1001 1001 1001 1001 1001 1001 1001 1001 
1001 1001 1001 1001 1001 1001 1001 1001 1001 
1001 1001 1001 1001 1001 1001 1001 1001 1001 
1001 1001 1001 1001 1001 1001 1001 1001 1001 
1001 1001 1001 1001 1001 1001 1001 1001 1001 
1001 1001 1001 1001 1001 1001 1001 1001 1001 
1001 1001 1001 1001 1001 1001 1001 1001 1001 
1001 1001 1001 1001 1001 1001 1001 1001 1001 
1001 1001 1001 1001 1001 1001 1001 1001 1001 
1001 1001 1001 1001 1001 1001 1001 1001 1001 
1001 1001 1001 1001 1001 1001 1001 1001 1001 
1001 1001 1001 1001 1001 1001 1001 1001 1001 
1001 1001 1001 1001 1001 1001 1001 1001 1001 
1001 1001 1001 1001 1001 1001 1001 1001 1001 
1001 1001 1001 1001 1001 1001 1001 1001 1001 
1001 1001 1001 1001 1001 1001 1001 1001 1001 
1001 1001 1001 1001 1001 1001 1001 1001 1001 
1001 1001 1001 1001 1001 1001 1001 1001 1001 
1001 1001 1001 1001 1001 1001 1001 1001 1001 
1001 1001 1001 1001 1001 1001 1001 1001 1001 
1001 1001 1001 1001 1001 1001 1001 1001 1001 
1001 1001 1001 1001 1001 1001 1001 1001 1001 
1001 1001 1001 1001 1001 1001 1001 1001 1001 
1001 1001 1001 1001 1001 1001 1001 1001 1001 
1001 1001 1001 1001 1001 1001 1001 1001 1001 
1001 1001 1001 1001 1001 1001 1001 1001 1001 
1001 1001 1001 1001 1001 1001 1001 1001 1001 
1001 1001 1001 1001 1001 1001 1001 1001 1001 
1001 1001 1001 1001 1001 1001 1001 1001 1001 
1001 1001 1001 1001 1001 1001 1001 1001 1001 
1001 1001 1001 1001 1001 1001 1001 1001 1001 
1001 1001 1001 1001 1001 1001 1001 1001 1001 
1001 1001 1001 1001 1001 1001 1001 1001 1001 
1001 1001 1001 1001 1001 1001 1001 1001 1001 
1001 1001 1001 1001 1001 1001 1001 1001 1001 
1001 1001 1001 1001 1001 1001 1001 1001 1001 
1001 1001 1001 1001 1001 1001 1001 1001 1001 
1001 1001 1001 1001 1001 1001 1001 1001 1001 
1001 1001 1001 1001 1001 1001 1001 1001 1001 
1001 1001 1001 1001 1001 1001 1001 1001 1001 
1001 1001 1001 1001 1001 1001 1001 1001 1001 
1001 1001 1001 1001 1001 1001 1001 1001 1001 
1001 1001 1001 1001 1001 1001 1001 1001 1001 
1001 1001 1001 1001 1001 1001 1001 1001 1001 
1001 1001 1001 1001 1001 1001 1001 1001 1001 
1001 1001 1001 1001 1001 1001 1001 1001 1001 
1001 1001 1001 1001 1001 1001 1001 1001 1001 
1001 1001 1001 1001 1001 1001 1001 1001 1001 
1001 1001 1001 1001 1001 1001 1001 1001 1001 
1001 1001 1001 1001 1001 1001 1001 1001 1001 
1001 1001 1001 1001 1001 1001 1001 1001 1001 
1001 1001 1001 1001 1001 1001 1001 1001 1001 
1001 1001 1001 1001 1001 1001 1001 1001 1001 
1001 1001 1001 1001 1001 1001 1001 1001 1001 
1001 1001 1001 1001 1001 1001 1001 1001 1001 
1001 1001 1001 1001 1001 1001 1001 1001 1001 
1001 1001 1001 1001 1001 1001 1001 1001 1001 
1001 1001 1001 1001 1001 1001 1001 1001 1001 
1001 1001 1001 1001 1001 1001 1001 1001 1001 
1001 1001 1001 1001 1001 1001 1001 1001 1001 
1001 1001 1001 1001 1001 1001 1001 1001 1001 
1001 1001 1001 1001 1001 1001 1001 1001 1001 
1001 1001 1001 1001 1001 1001 1001 1001 1001 
1001 1001 1001 1001 1001 1001 1001 1001 1001 
1001 1001 1001 1001 1001 1001 1001 1001 1001 
1001 1001 1001 1001 1001 1001 1001 1001 1001 
1001 1001 1001 1001 1001 1001 1001 1001 1001 
1001 1001 1001 1001 1001 1001 1001 1001 1001 
1001 1001 1001 1001 1001 1001 1001 1001 1001 
1001 1001 1001 1001 1001 1001 1001 1001 1001 
1001 1001 1001 1001 1001 1001 1001 1001 1001 
1001 1001 1001 1001 1001 1001 1001 1001 1001 
1001 1001 1001 1001 1001 1001 1001 1001 1001 
1001 1001 1001 1001 1001 1001 1001 1001 1001 
1001 1001 1001 1001 1001 1001 1001 1001 1001 
1001 1001 1001 1001 1001 1001 1001 1001 1001 
1001 1001 1001 1001 1001 1001 1001 1001 1001 
1001 1001 1001 1001 1001 1001 1001 1001 1001 
1001 1001 1001 1001 1001 1001 1001 1001 1001 
1001 1001 1001 1001 1001 1001 1001 1001 1001 
1001 1001 1001 1001 1001 1001 1001 1001 1001 
1001 1001 1001 1001 1001 1001 1001 1001 1001 
1001 1001 1001 1001 1001 1001 1001 1001 1001 
1001 1001 1001 1001 1001 1001 1001 1001 1001 
1001 1001 1001 1001 1001 1001 1001 1001 1001 
1001 1001 1001 1001 1001 1001 1001 1001 1001 
1001 1001 1001 1001 1001 1001 1001 1001 1001 
1001 1001 1001 1001 1001 1001 1001 1001 1001 
1001 1001 1001 1001 1001 1001 1001 1001 1001 
1001 1001 1001 1001 1001 1001 1001 1001 1001 
1001 1001 1001 1001 1001 1001 1001 1001 1001 
1001 1001 1001 1001 1001 1001 1001 1001 1001 
1001 1001 1001 1001 1001 1001 1001 1001 1001 
1001 1001 1001 1001 1001 1001 1001 1001 1001 