# vtk DataFile Version 4.0
vtk output
ASCII
DATASET POLYDATA
POINTS 29470 float
9.81792 73.8724 6.80871 9.91768 73.5141 7.42238 10.5069 73.4965 7.0158 
8.73802 73.9139 6.88667 9.23448 73.5215 7.54706 7.97511 73.7746 6.77382 
8.28617 73.5363 7.48407 7.62648 73.4531 7.07338 10.8291 73.8713 5.94741 
11.2291 73.4443 6.44071 11.6576 73.5978 5.85562 9.83956 74.0477 5.85308 
9.13506 74.0579 6.16503 8.29638 73.8583 5.95131 7.45991 73.3202 6.07713 
11.7072 73.8675 5.04704 12.0762 73.5511 5.4866 12.4439 73.4921 4.8312 
10.836 74.0364 4.82904 9.98524 74.0359 4.95601 8.99897 73.9404 5.12145 
8.32518 73.6064 5.06002 7.92275 73.3627 5.38611 11.8931 73.9317 3.95453 
12.5621 73.3789 3.68828 10.9844 74.0727 3.95644 9.99662 74.0417 3.90912 
9.11053 73.875 3.97156 8.44292 73.5262 4.24273 11.8931 73.8585 3.01362 
12.3389 73.2391 2.74705 11.0062 74.0687 2.95454 10.1396 74.0552 3.05128 
9.27264 73.8327 2.86964 8.48685 73.5039 3.28107 11.8795 73.6351 2.38362 
11.5501 73.5637 1.94292 11.2131 73.8553 2.19553 10.1383 73.8527 2.1351 
9.33179 73.5931 2.06664 8.7454 73.4583 2.51315 10.9709 73.3739 1.52611 
9.86088 73.4648 1.56929 7.80056 72.8592 8.81987 8.04387 72.1922 9.38032 
8.58412 72.5762 8.94551 6.79131 72.8549 8.75286 7.24315 72.5106 9.27156 
6.5565 72.2322 8.9865 9.89794 72.9923 7.84762 9.89299 72.4698 8.38381 
10.4665 72.4932 8.00832 8.72145 73.0166 8.23559 9.31489 72.5067 8.61888 
7.75947 73.179 7.84619 6.93265 73.0726 7.99988 6.05869 72.5477 8.57074 
5.86031 72.9422 7.96699 4.9509 72.7866 7.7298 5.09567 72.2152 8.47851 
4.39742 72.3704 7.98339 11.765 72.7646 6.97779 11.8812 72.4978 7.33627 
12.3674 72.4488 6.80275 11.0233 72.9938 7.12227 11.3034 72.5033 7.57652 
6.96519 73.158 6.89283 6.15796 73.0661 7.14541 5.3059 72.8706 6.90305 
4.49313 72.5614 7.28459 12.0508 73.1137 6.05148 12.7058 72.5913 5.8975 
6.82973 73.0278 6.06491 6.13959 72.8531 6.15378 5.35403 72.3514 5.8598 
4.81459 72.4868 6.52766 12.8467 72.8942 5.17637 13.108 72.3367 5.52583 
13.2998 72.335 4.87303 7.98155 73.0861 4.62921 7.50854 72.6314 4.95514 
6.76765 72.6299 5.43616 6.0057 72.3679 5.41348 13.0153 72.961 4.31394 
13.3068 72.1293 3.90152 7.7869 73.0207 3.67677 7.51454 72.3802 4.09739 
12.9695 72.6771 3.57282 12.6932 72.4185 2.82061 7.97464 73.1568 2.65234 
6.95507 72.3831 3.47698 7.06916 72.8558 2.90142 6.4389 72.4071 2.99462 
11.9447 73.1593 1.99414 12.3483 72.3554 1.8838 8.95781 73.2221 1.78703 
8.09774 72.9096 1.70447 7.28632 72.8355 2.0983 6.68986 72.4412 2.32147 
11.7744 72.6958 1.36975 11.1087 72.8509 0.997505 11.5433 72.5075 0.935637 
9.96554 73.0096 0.894041 8.83521 72.8895 0.903541 8.31244 72.5191 0.977104 
7.7858 72.3841 1.43472 7.23123 72.2738 1.72778 10.9634 72.38 0.49974 
9.64895 72.3227 0.155249 9.22436 72.5297 -0.166624 9.20953 72.7483 0.121931 
8.72247 72.4631 0.241448 8.99157 72.5341 -0.224729 9.88551 72.0137 8.82639 
10.0527 71.1829 9.33089 10.59 71.6027 8.87345 8.94494 72.1799 9.1364 
8.84786 71.4935 9.41668 7.76539 71.34 9.51019 6.97335 71.5981 9.37217 
6.27885 71.4102 9.04926 4.98471 71.7458 8.96455 4.96532 71.4525 9.2502 
5.31818 71.5421 9.01996 4.59854 71.5295 9.05066 11.9048 72.0019 7.80455 
12.2096 71.2364 8.31109 12.5841 71.5931 7.87158 10.8697 72.022 8.27527 
11.3403 71.3554 8.59075 5.89539 71.8398 8.75047 3.70345 72.0403 7.75283 
4.06146 71.7652 8.5129 2.91361 71.7411 7.74734 3.21776 71.5096 8.43762 
2.57194 71.4137 8.05539 12.7812 71.8603 7.22107 13.0001 71.5097 7.54025 
13.3861 71.4305 6.85603 4.16515 72.1953 6.77479 3.28456 71.8486 6.87938 
2.42043 71.3086 7.04925 13.0246 72.0455 6.29105 13.5173 71.6457 5.66908 
4.72379 72.1114 6.07268 4.06828 71.8351 6.0859 3.42194 71.5945 6.09211 
2.88944 71.3992 6.35496 16.0489 71.7607 4.67386 16.1039 71.4629 5.2294 
16.5739 71.6235 4.82425 15.5814 71.4211 5.05002 13.6236 71.5637 4.66683 
10.0082 71.7185 4.93406 10.2383 71.5127 4.93276 10.0086 71.6077 5.24108 
9.68353 71.2321 4.99863 7.03113 72.041 4.76116 6.34 71.9535 4.90997 
5.58003 71.7807 5.09179 4.7377 71.4702 5.41233 3.77954 71.2294 5.62491 
16.737 71.7622 4.19357 17.1759 71.4804 4.40221 17.2676 71.4709 3.76816 
16.2178 71.777 4.0016 15.5543 71.4993 4.29942 13.606 71.4022 3.78829 
9.95006 71.441 4.5359 7.3407 71.5772 4.13043 6.83867 71.2991 4.41776 
5.81867 71.2531 4.62472 16.6521 71.5412 3.49834 15.9074 71.4504 3.60908 
13.0329 72.0493 3.12324 13.2987 71.4856 3.01689 6.88878 71.4875 3.63294 
5.91691 71.9643 2.85546 5.97626 71.608 3.36602 5.13675 71.744 2.92583 
5.15011 71.5747 3.24176 4.69 71.3071 3.08924 12.9035 71.6117 2.51677 
12.6875 71.5588 1.88099 6.98352 72.052 1.93913 7.32839 71.6369 1.83163 
6.69771 71.4451 2.29843 5.66157 71.4206 2.62817 4.89954 71.3136 2.76453 
11.9302 72.1284 1.00507 12.4022 71.6086 1.18434 8.46428 71.714 0.855135 
7.88334 71.4754 1.53615 11.9838 71.5182 0.434806 11.0804 71.9025 -0.0283055 
11.5506 71.4034 -0.172973 10.2839 71.971 -0.096736 9.56553 71.5793 -0.0438386 
9.00435 71.3084 0.33634 8.97566 72.1537 0.0454083 10.7774 71.2904 -0.430546 
9.93335 71.287 -0.34959 7.80782 70.8645 13.7696 8.07699 70.4413 14.372 
8.59875 70.6032 13.8677 6.74487 70.8995 13.8859 7.25508 70.5045 14.5264 
5.79881 70.8103 13.7524 6.31173 70.4931 14.4482 5.57875 70.4203 14.1648 
9.74325 70.8449 12.8269 9.95848 70.5333 13.3402 10.4059 70.5081 12.7687 
8.75257 70.9332 13.0177 9.35124 70.5439 13.5758 7.83902 71.0559 12.829 
6.99068 71.0505 13.0108 5.97106 71.0353 13.0126 5.0939 70.5762 13.6698 
4.87184 70.9049 12.9813 3.78591 70.7831 12.7117 4.34231 70.4922 13.4357 
3.59048 70.4079 13.1389 10.0303 70.798 12.1448 10.396 70.4857 11.8333 
9.28598 70.9033 12.0973 8.29236 70.9192 12.1029 7.26175 70.9016 12.1218 
6.09927 70.9022 12.031 4.99889 71.0231 12.0352 3.93832 71.0247 11.973 
3.11581 70.5464 12.5682 2.89382 70.8307 11.85 2.52635 70.4425 12.1394 
9.6972 70.3809 11.473 8.84305 70.5512 11.5799 7.86253 70.397 11.453 
6.67914 70.497 11.4819 5.84174 70.5455 11.3306 5.49506 70.4328 10.6469 
5.01643 70.8342 11.0403 3.9674 71.01 11.0118 2.94664 71.017 10.9481 
2.09082 70.5726 11.5333 2.06631 70.8087 10.8842 1.57717 70.4551 11.0134 
4.93059 70.9776 9.74252 5.57763 70.4789 9.87597 3.92284 70.9595 9.99768 
2.93658 70.9959 9.9518 2.0656 70.8748 9.95731 1.42767 70.517 10.1861 
10.8782 71.1043 9.08508 10.7746 70.3273 9.33664 11.359 70.628 8.95953 
9.8266 70.3121 9.49531 8.9606 70.4795 9.48411 7.91114 70.4714 9.48898 
7.07048 70.6171 9.4762 5.7234 71.0323 9.20944 6.24744 70.4321 9.511 
3.87275 71.1855 9.14362 2.87319 71.1044 8.92388 2.0654 70.8825 8.95395 
1.43482 70.5238 9.20541 13.0613 71.1178 7.84152 12.7683 70.3354 8.34689 
13.5001 70.5189 7.86291 11.9051 70.4972 8.6664 2.03312 71.0044 7.85376 
1.4443 70.5193 8.19049 17.8061 70.7836 6.79389 17.9993 70.2319 7.31346 
18.341 70.5472 6.80041 17.4916 70.4045 7.14842 13.9289 70.8534 7.05678 
14.1693 70.16 7.44394 14.5753 70.5368 6.84268 8.91759 70.8782 6.90788 
9.6185 70.6421 6.88476 9.02048 70.188 7.37974 7.93199 70.4376 7.38805 
8.02414 70.8749 6.83589 7.02169 70.4753 7.29038 7.18869 70.7813 6.89634 
6.51373 70.4467 7.0588 1.9104 70.8877 7.02333 1.4163 70.3051 7.016 
18.0578 70.9218 5.92336 18.6467 70.2759 6.00407 17.1282 70.6212 6.70649 
17.0339 70.9017 6.14676 15.8149 70.9814 5.74057 16.2807 70.5126 6.50034 
14.6672 70.8373 6.05015 15.3047 70.4887 6.53245 13.9639 71.1016 6.15499 
9.85816 71.0484 5.883 10.5784 70.5375 6.04752 10.0702 70.5859 6.52798 
8.91708 70.9308 6.26205 8.50756 70.6068 6.17015 7.76697 70.3621 6.46707 
6.72052 70.3429 6.66069 3.11869 71.1182 5.85392 2.52384 70.7835 6.09659 
1.93138 70.5138 6.42291 18.7516 70.8397 5.04099 19.0269 70.3267 5.25785 
19.2725 70.5795 4.73022 18.056 71.0633 5.02528 17.0766 71.2053 5.18902 
14.9221 71.0695 4.8925 14.1027 71.0859 5.25261 10.775 70.9631 5.03674 
11.3649 70.3971 4.92207 11.1613 70.3789 5.6021 9.15399 70.4378 5.52475 
9.39671 70.5371 4.83589 5.14834 71.1033 4.84812 4.5744 70.6595 4.95684 
3.86303 70.4144 5.24335 2.91954 70.3615 5.57269 18.9433 70.8351 4.052 
19.2858 70.477 4.1902 17.924 71.1434 4.09803 14.9881 71.0891 3.6718 
14.1134 71.0702 4.2229 10.8949 70.8621 4.04303 11.3718 70.1963 3.91232 
10.1885 71.0944 4.02333 9.6124 70.614 4.21919 7.55335 70.6251 3.94973 
7.15993 70.2935 4.33444 5.98177 70.5061 4.43034 4.91746 70.371 4.58951 
18.9379 70.5887 3.53086 18.5318 70.1575 2.88273 18.1199 70.8734 3.01409 
17.0811 71.1696 2.95537 15.8652 71.1319 2.90176 14.7878 70.9438 2.7463 
13.9407 71.0294 3.05121 10.8779 70.6479 3.38013 10.0233 70.8627 2.9342 
10.6099 70.5836 2.64293 9.51059 70.327 3.18005 7.05742 70.3745 3.57333 
5.96833 70.4727 3.50571 4.89691 70.6419 3.39926 4.41355 70.4464 2.85818 
17.8952 70.6077 2.27334 17.5848 70.3876 1.80225 17.2325 70.8391 2.14123 
16.2844 70.8855 2.06209 15.2134 70.8367 2.05736 14.0433 70.8118 1.94903 
13.2071 71.1162 2.14805 10.0013 70.7738 2.16917 10.4284 70.5232 2.08322 
9.13293 70.5458 2.41018 8.91253 70.8384 1.73459 8.5056 70.1932 1.91757 
7.41231 70.8458 1.9324 6.75839 70.2633 2.28128 5.97292 70.4967 2.4925 
5.15883 70.726 2.59923 16.923 70.3859 1.5923 15.8955 70.4061 1.42403 
14.7121 70.4775 1.42609 13.8409 70.5181 1.27936 13.4399 70.4536 0.941108 
13.0024 70.9389 1.18928 9.89514 70.3458 1.57614 9.03702 70.4997 1.34923 
8.74836 70.7254 0.991058 7.85627 70.3913 1.68319 12.9822 70.4802 0.436547 
12.1445 70.9581 -0.0195738 12.5769 70.3696 -0.116629 9.39633 70.7104 -0.0736681 
9.09509 70.3065 0.51657 11.7523 70.4745 -0.449654 10.7403 70.3241 -0.605177 
10.0324 70.4793 -0.456162 8.87624 69.7975 14.8969 9.19214 69.217 15.3195 
9.53028 69.5703 14.8491 7.86149 70.0075 14.9311 8.27294 69.3499 15.5198 
6.75232 70.015 15.0187 7.24354 69.5275 15.5275 5.7181 69.9817 14.8404 
6.25816 69.5081 15.5147 4.7234 69.8487 14.8684 5.2691 69.4808 15.5069 
3.74991 69.8674 14.8624 4.2729 69.4974 15.5252 2.80792 69.8102 14.723 
3.30569 69.5286 15.4292 2.54774 69.4556 15.1458 9.86649 70.0253 13.973 
9.96547 69.5281 14.506 10.4814 69.5016 14.0234 8.79823 70.213 14.2963 
4.92729 70.189 14.138 3.93812 70.1061 13.951 2.97423 70.0062 13.963 
1.91203 69.3517 14.5948 2.09739 69.7935 13.9147 1.4563 69.3481 13.9407 
[...]
CELL_DATA 59000
SCALARS scalars float
LOOKUP_TABLE default
2028 2028 2028 2028 2028 2028 2028 2028 2028 
2028 2028 2028 2028 2028 2028 2028 2028 2028 
2028 2028 2028 2028 2028 2028 2028 2028 2028 
2028 2028 2028 2028 2028 2028 2028 2028 2028 
2028 2028 2028 2028 2028 2028 2028 2028 2028 
2028 2028 2028 2028 2028 2028 2028 2028 2028 
2028 2028 2028 2028 2028 2028 2028 2028 2028 
2028 2028 2028 2028 2028 2028 2028 2028 2028 
2028 2028 2028 2028 2028 2028 2028 2028 2028 
2028 2028 2028 2028 2028 2028 2028 2028 2028 
2028 2028 2028 2028 2028 2028 2028 2028 2028 
2028 2028 2028 2028 2028 2028 2028 2028 2028 
2028 2028 2028 2028 2028 2028 2028 2028 2028 
2028 2028 2028 2028 2028 2028 2028 2028 2028 
2028 2028 2028 2028 2028 2028 2028 2028 2028 
2028 2028 2028 2028 2028 2028 2028 2028 2028 
2028 2028 2028 2028 2028 2028 2028 2028 2028 
2028 2028 2028 2028 2028 2028 2028 2028 2028 
2028 2028 2028 2028 2028 2028 2028 2028 2028 
2028 2028 2028 2028 2028 2028 2028 2028 2028 
2028 2028 2028 2028 2028 2028 2028 2028 2028 
2028 2028 2028 2028 2028 2028 2028 2028 2028 
2028 2028 2028 2028 2028 2028 2028 2028 2028 
2028 2028 2028 2028 2028 2028 2028 2028 2028 
2028 2028 2028 2028 2028 2028 2028 2028 2028 
2028 2028 2028 2028 2028 2028 2028 2028 2028 
2028 2028 2028 2028 2028 2028 2028 2028 2028 
2028 2028 2028 2028 2028 2028 2028 2028 2028 
2028 2028 2028 2028 2028 2028 2028 2028 2028 
2028 2028 2028 2028 2028 2028 2028 2028 2028 
2028 2028 2028 2028 2028 2028 2028 2028 2028 
2028 2028 2028 2028 2028 2028 2028 2028 2028 
2028 2028 2028 2028 2028 2028 2028 2028 2028 
2028 2028 2028 2028 2028 2028 2028 2028 2028 
2028 2028 2028 2028 2028 2028 2028 2028 2028 
2028 2028 2028 2028 2028 2028 2028 2028 2028 
2028 2028 2028 2028 2028 2028 2028 2028 2028 
2028 2028 2028 2028 2028 2028 2028 2028 2028 
2028 2028 2028 2028 2028 2028 2028 2028 2028 
2028 2028 2028 2028 2028 2028 2028 2028 2028 
2028 2028 2028 2028 2028 2028 2028 2028 2028 
2028 2028 2028 2028 2028 2028 2028 2028 2028 
2028 2028 2028 2028 2028 2028 2028 2028 2028 
2028 2028 2028 2028 2028 2028 2028 2028 2028 
2028 2028 2028 2028 2028 2028 2028 2028 2028 
2028 2028 2028 2028 2028 2028 2028 2028 2028 
2028 2028 2028 2028 2028 2028 2028 2028 2028 
2028 2028 2028 2028 2028 2028 2028 2028 2028 
2028 2028 2028 2028 2028 2028 2028 2028 2028 
2028 2028 2028 2028 2028 2028 2028 2028 2028 
2028 2028 2028 2028 2028 2028 2028 2028 2028 
2028 2028 2028 2028 2028 2028 2028 2028 2028 
2028 2028 2028 2028 2028 2028 2028 2028 2028 
2028 2028 2028 2028 2028 2028 2028 2028 2028 
2028 2028 2028 2028 2028 2028 2028 2028 2028 
2028 2028 2028 2028 2028 2028 2028 2028 2028 
2028 2028 2028 2028 2028 2028 2028 2028 2028 
2028 2028 2028 2028 2028 2028 2028 2028 2028 
2028 2028 2028 2028 2028 2028 2028 2028 2028 
2028 2028 2028 2028 2028 2028 2028 2028 2028 
2028 2028 2028 2028 2028 2028 2028 2028 2028 
2028 2028 2028 2028 2028 2028 2028 2028 2028 
2028 2028 2028 2028 2028 2028 2028 2028 2028 
2028 2028 2028 2028 2028 2028 2028 2028 2028 
2028 2028 2028 2028 2028 2028 2028 2028 2028 
2028 2028 2028 2028 2028 2028 2028 2028 2028 
2028 2028 2028 2028 2028 2028 2028 2028 2028 
2028 2028 2028 2028 2028 2028 2028 2028 2028 
2028 2028 2028 2028 2028 2028 2028 2028 2028 
2028 2028 2028 2028 2028 2028 2028 2028 2028 
2028 2028 2028 2028 2028 2028 2028 2028 2028 
2028 2028 2028 2028 2028 2028 2028 2028 2028 
2028 2028 2028 2028 2028 2028 2028 2028 2028 
2028 2028 2028 2028 2028 2028 2028 2028 2028 
2028 2028 2028 2028 2028 2028 2028 2028 2028 
2028 2028 2028 2028 2028 2028 2028 2028 2028 
2028 2028 2028 2028 2028 2028 2028 2028 2028 
2028 2028 2028 2028 2028 2028 2028 2028 2028 
2028 2028 2028 2028 2028 2028 2028 2028 2028 
2028 2028 2028 2028 2028 2028 2028 2028 2028 
2028 2028 2028 2028 2028 2028 2028 2028 2028 
2028 2028 2028 2028 2028 2028 2028 2028 2028 
2028 2028 2028 2028 2028 2028 2028 2028 2028 
2028 2028 2028 2028 2028 2028 2028 2028 2028 
2028 2028 2028 2028 2028 2028 2028 2028 2028 
2028 2028 2028 2028 2028 2028 2028 2028 2028 
2028 2028 2028 2028 2028 2028 2028 2028 2028 
2028 2028 2028 2028 2028 2028 2028 2028 2028 
2028 2028 2028 2028 2028 2028 2028 2028 2028 
2028 2028 2028 2028 2028 2028 2028 2028 2028 
2028 2028 2028 2028 2028 2028 2028 2028 2028 
2028 2028 2028 2028 2028 2028 2028 2028 2028 
2028 2028 2028 2028 2028 2028 2028 2028 2028 
2028 2028 2028 2028 2028 2028 2028 2028 2028 
2028 2028 2028 2028 2028 2028 2028 2028 2028 
2028 2028 2028 2028 2028 2028 2028 2028 2028 
2028 2028 2028 2028 2028 2028 2028 2028 2028 
2028 2028 2028 2028 2028 2028 2028 2028 2028 
2028 2028 2028 2028 2028 2028 2028 2028 2028 
2028 2028 2028 2028 2028 2028 2028 2028 2028 
2028 2028 2028 2028 2028 2028 2028 2028 2028 
2028 2028 2028 2028 2028 2028 2028 2028 2028 
2028 2028 2028 2028 2028 2028 2028 2028 2028 
2028 2028 2028 2028 2028 2028 2028 2028 2028 
2028 2028 2028 2028 2028 2028 2028 2028 2028 
2028 2028 2028 2028 2028 2028 2028 2028 2028 
2028 2028 2028 2028 2028 2028 2028 2028 2028 
2028 2028 2028 2028 2028 2028 2028 2028 2028 
2028 2028 2028 2028 2028 2028 2028 2028 2028 
2028 2028 2028 2028 2028 2028 2028 2028 2028 
2028 2028 2028 2028 2028 2028 2028 2028 2028 
2028 2028 2028 2028 2028 2028 2028 2028 2028 
2028 2028 2028 2028 2028 2028 2028 2028 2028 
2028 2028 2028 2028 2028 2028 2028 2028 2028 
2028 2028 2028 2028 2028 2028 2028 2028 2028 
2028 2028 2028 2028 2028 2028 2028 2028 2028 
2028 2028 2028 2028 2028 2028 2028 2028 2028 
2028 2028 2028 2028 2028 2028 2028 2028 2028 
2028 2028 2028 2028 2028 2028 2028 2028 2028 
2028 2028 2028 2028 2028 2028 2028 2028 2028 
2028 2028 2028 2028 2028 2028 2028 2028 2028 
2028 2028 2028 2028 2028 2028 2028 2028 2028 
2028 2028 2028 2028 2028 2028 2028 2028 2028 
2028 2028 2028 2028 2028 2028 2028 2028 2028 
2028 2028 2028 2028 2028 2028 2028 2028 2028 
2028 2028 2028 2028 2028 2028 2028 2028 2028 
2028 2028 2028 2028 2028 2028 2028 2028 2028 
2028 2028 2028 2028 2028 2028 2028 2028 2028 
2028 2028 2028 2028 2028 2028 2028 2028 2028 
2028 2028 2028 2028 2028 2028 2028 2028 2028 
2028 2028 2028 2028 2028 2028 2028 2028 2028 
2028 2028 2028 2028 2028 2028 2028 2028 2028 
2028 2028 2028 2028 2028 2028 2028 2028 2028 
2028 2028 2028 2028 2028 2028 2028 2028 2028 
2028 2028 2028 2028 2028 2028 2028 2028 2028 
2028 2028 2028 2028 2028 2028 2028 2028 2028 
2028 2028 2028 2028 2028 2028 2028 2028 2028 
2028 2028 2028 2028 2028 2028 2028 2028 2028 
2028 2028 2028 2028 2028 2028 2028 2028 2028 
2028 2028 2028 2028 2028 2028 2028 2028 2028 
2028 2028 2028 2028 2028 2028 2028 2028 2028 
2028 2028 2028 2028 2028 2028 2028 2028 2028 
2028 2028 2028 2028 2028 2028 2028 2028 2028 
2028 2028 2028 2028 2028 2028 2028 2028 2028 
2028 2028 2028 2028 2028 2028 2028 2028 2028 
2028 2028 2028 2028 2028 2028 2028 2028 2028 
2028 2028 2028 2028 2028 2028 2028 2028 2028 
2028 2028 2028 2028 2028 2028 2028 2028 2028 
2028 2028 2028 2028 2028 2028 2028 2028 2028 
2028 2028 2028 2028 2028 2028 2028 2028 2028 
2028 2028 2028 2028 2028 2028 2028 2028 2028 
2028 2028 2028 2028 2028 2028 2028 2028 2028 
2028 2028 2028 2028 2028 2028 2028 2028 2028 
2028 2028 2028 2028 2028 2028 2028 2028 2028 
2028 2028 2028 2028 2028 2028 2028 2028 2028 
2028 2028 2028 2028 2028 2028 2028 2028 2028 
2028 2028 2028 2028 2028 2028 2028 2028 2028 
2028 2028 2028 2028 2028 2028 2028 2028 2028 
2028 2028 2028 2028 2028 2028 2028 2028 2028 
2028 2028 2028 2028 2028 2028 2028 2028 2028 
2028 2028 2028 2028 2028 2028 2028 2028 2028 
2028 2028 2028 2028 2028 2028 2028 2028 2028 
2028 2028 2028 2028 2028 2028 2028 2028 2028 
2028 2028 2028 2028 2028 2028 2028 2028 2028 
2028 2028 2028 2028 2028 2028 2028 2028 2028 
2028 2028 2028 2028 2028 2028 2028 2028 2028 
2028 2028 2028 2028 2028 2028 2028 2028 2028 
2028 2028 2028 2028 2028 2028 2028 2028 2028 
2028 2028 2028 2028 2028 2028 2028 2028 2028 
2028 2028 2028 2028 2028 2028 2028 2028 2028 
2028 2028 2028 2028 2028 2028 2028 2028 2028 
2028 2028 2028 2028 2028 2028 2028 2028 2028 
2028 2028 2028 2028 2028 2028 2028 2028 2028 
2028 2028 2028 2028 2028 2028 2028 2028 2028 
2028 2028 2028 2028 2028 2028 2028 2028 2028 
2028 2028 2028 2028 2028 2028 2028 2028 2028 
2028 2028 2028 2028 2028 2028 2028 2028 2028 
2028 2028 2028 2028 2028 2028 2028 2028 2028 
2028 2028 2028 2028 2028 2028 2028 2028 2028 
2028 2028 2028 2028 2028 2028 2028 2028 2028 
2028 2028 2028 2028 2028 2028 2028 2028 2028 
2028 2028 2028 2028 2028 2028 2028 2028 2028 
2028 2028 2028 2028 2028 2028 2028 2028 2028 
2028 2028 2028 2028 2028 2028 2028 2028 2028 
2028 2028 2028 2028 2028 2028 2028 2028 2028 
2028 2028 2028 2028 2028 2028 2028 2028 2028 
2028 2028 2028 2028 2028 2028 2028 2028 2028 
2028 2028 2028 2028 2028 2028 2028 2028 2028 
2028 2028 2028 2028 2028 2028 2028 2028 2028 
2028 2028 2028 2028 2028 2028 2028 2028 2028 
2028 2028 2028 2028 2028 2028 2028 2028 2028 
2028 2028 2028 2028 2028 2028 2028 2028 2028 
2028 2028 2028 2028 2028 2028 2028 2028 2028 
2028 2028 2028 2028 2028 2028 2028 2028 2028 
2028 2028 2028 2028 2028 2028 2028 2028 2028 
2028 2028 2028 2028 2028 2028 2028 2028 2028 
2028 2028 2028 2028 2028 2028 2028 2028 2028 
2028 2028 2028 2028 2028 2028 2028 2028 2028 
2028 2028 2028 2028 2028 2028 2028 2028 2028 
2028 2028 2028 2028 2028 2028 2028 2028 2028 
2028 2028 2028 2028 2028 2028 2028 2028 2028 
2028 2028 2028 2028 2028 2028 2028 2028 2028 
2028 2028 2028 2028 2028 2028 2028 2028 2028 
2028 2028 2028 2028 2028 2028 2028 2028 2028 
2028 2028 2028 2028 2028 2028 2028 2028 2028 
2028 2028 2028 2028 2028 2028 2028 2028 2028 
2028 2028 2028 2028 2028 2028 2028 2028 2028 
2028 2028 2028 2028 2028 2028 2028 2028 2028 
2028 2028 2028 2028 2028 2028 2028 2028 2028 
2028 2028 2028 2028 2028 2028 2028 2028 2028 
2028 2028 2028 2028 2028 2028 2028 2028 2028 
2028 2028 2028 2028 2028 2028 2028 2028 2028 
2028 2028 2028 2028 2028 2028 2028 2028 2028 
2028 2028 2028 2028 2028 2028 2028 2028 2028 
2028 2028 2028 2028 2028 2028 2028 2028 2028 
2028 2028 2028 2028 2028 2028 2028 2028 2028 
2028 2028 2028 2028 2028 2028 2028 2028 2028 
2028 2028 2028 2028 2028 2028 2028 2028 2028 
2028 2028 2028 2028 2028 2028 2028 2028 2028 
2028 2028 2028 2028 2028 2028 2028 2028 2028 
2028 2028 2028 2028 2028 2028 2028 2028 2028 
2028 2028 2028 2028 2028 2028 2028 2028 2028 
2028 2028 2028 2028 2028 2028 2028 2028 2028 
2028 2028 2028 2028 2028 2028 2028 2028 2028 
2028 2028 2028 2028 2028 2028 2028 2028 2028 
2028 2028 2028 2028 2028 2028 2028 2028 2028 
2028 2028 2028 2028 2028 2028 2028 2028 2028 
2028 2028 2028 2028 2028 2028 2028 2028 2028 
2028 2028 2028 2028 2028 2028 2028 2028 2028 
2028 2028 2028 2028 2028 2028 2028 2028 2028 
2028 2028 2028 2028 2028 2028 2028 2028 2028 
2028 2028 2028 2028 2028 2028 2028 2028 2028 
2028 2028 2028 2028 2028 2028 2028 2028 2028 
2028 2028 2028 2028 2028 2028 2028 2028 2028 
2028 2028 2028 2028 2028 2028 2028 2028 2028 
2028 2028 2028 2028 2028 2028 2028 2028 2028 
2028 2028 2028 2028 2028 2028 2028 2028 2028 
2028 2028 2028 2028 2028 2028 2028 2028 2028 
2028 2028 2028 2028 2028 2028 2028 2028 2028 
2028 2028 2028 2028 2028 2028 2028 2028 2028 
2028 2028 2028 2028 2028 2028 2028 2028 2028 
2028 2028 2028 2028 2028 2028 2028 2028 2028 
2028 2028 2028 2028 2028 2028 2028 2028 2028 
2028 2028 2028 2028 2028 2028 2028 2028 2028 
2028 2028 2028 2028 2028 2028 2028 2028 2028 
2028 2028 2028 2028 2028 2028 2028 2028 2028 
2028 2028 2028 2028 2028 2028 2028 2028 2028 
2028 2028 2028 2028 2028 2028 2028 2028 2028 
2028 2028 2028 2028 2028 2028 2028 2028 2028 
2028 2028 2028 2028 2028 2028 2028 2028 2028 
2028 2028 2028 2028 2028 2028 2028 2028 2028 
2028 2028 2028 2028 2028 2028 2028 2028 2028 
2028 2028 2028 2028 2028 2028 2028 2028 2028 
2028 2028 2028 2028 2028 2028 2028 2028 2028 
2028 2028 2028 2028 2028 2028 2028 2028 2028 
2028 2028 2028 2028 2028 2028 2028 2028 2028 
2028 2028 2028 2028 2028 2028 2028 2028 2028 
2028 2028 2028 2028 2028 2028 2028 2028 2028 
2028 2028 2028 2028 2028 2028 2028 2028 2028 
2028 2028 2028 2028 2028 2028 2028 2028 2028 
2028 2028 2028 2028 2028 2028 2028 2028 2028 
2028 2028 2028 2028 2028 2028 2028 2028 2028 
2028 2028 2028 2028 2028 2028 2028 2028 2028 
2028 2028 2028 2028 2028 2028 2028 2028 2028 
2028 2028 2028 2028 2028 2028 2028 2028 2028 
2028 2028 2028 2028 2028 2028 2028 2028 2028 
2028 2028 2028 2028 2028 2028 2028 2028 2028 
2028 2028 2028 2028 2028 2028 2028 2028 2028 
2028 2028 2028 2028 2028 2028 2028 2028 2028 
2028 2028 2028 2028 2028 2028 2028 2028 2028 
2028 2028 2028 2028 2028 2028 2028 2028 2028 
2028 2028 2028 2028 2028 2028 2028 2028 2028 
2028 2028 2028 2028 2028 2028 2028 2028 2028 
2028 2028 2028 2028 2028 2028 2028 2028 2028 
2028 2028 2028 2028 2028 2028 2028 2028 2028 
2028 2028 2028 2028 2028 2028 2028 2028 2028 
2028 2028 2028 2028 2028 2028 2028 2028 2028 
2028 2028 2028 2028 2028 2028 2028 2028 2028 
2028 2028 2028 2028 2028 2028 2028 2028 2028 
2028 2028 2028 2028 2028 2028 2028 2028 2028 
2028 2028 2028 2028 2028 2028 2028 2028 2028 
2028 2028 2028 2028 2028 2028 2028 2028 2028 
2028 2028 2028 2028 2028 2028 2028 2028 2028 
2028 2028 2028 2028 2028 2028 2028 2028 2028 
2028 2028 2028 2028 2028 2028 2028 2028 2028 
2028 2028 2028 2028 2028 2028 2028 2028 2028 
2028 2028 2028 2028 2028 2028 2028 2028 2028 
2028 2028 2028 2028 2028 2028 2028 2028 2028 
2028 2028 2028 2028 2028 2028 2028 2028 2028 
2028 2028 2028 2028 2028 2028 2028 2028 2028 
2028 2028 2028 2028 2028 2028 2028 2028 2028 
2028 2028 2028 2028 2028 2028 2028 2028 2028 
2028 2028 2028 2028 2028 2028 2028 2028 2028 
2028 2028 2028 2028 2028 2028 2028 2028 2028 
2028 2028 2028 2028 2028 2028 2028 2028 2028 
2028 2028 2028 2028 2028 2028 2028 2028 2028 
2028 2028 2028 2028 2028 2028 2028 2028 2028 
2028 2028 2028 2028 2028 2028 2028 2028 2028 
2028 2028 2028 2028 2028 2028 2028 2028 2028 
2028 2028 2028 2028 2028 2028 2028 2028 2028 
2028 2028 2028 2028 2028 2028 2028 2028 2028 
2028 2028 2028 2028 2028 2028 2028 2028 2028 
2028 2028 2028 2028 2028 2028 2028 2028 2028 
2028 2028 2028 2028 2028 2028 2028 2028 2028 
2028 2028 2028 2028 2028 2028 2028 2028 2028 
2028 2028 2028 2028 2028 2028 2028 2028 2028 
2028 2028 2028 2028 2028 2028 2028 2028 2028 
2028 2028 2028 2028 2028 2028 2028 2028 2028 
2028 2028 2028 2028 2028 2028 2028 2028 2028 
2028 2028 2028 2028 2028 2028 2028 2028 2028 
2028 2028 2028 2028 2028 2028 2028 2028 2028 
2028 2028 2028 2028 2028 2028 2028 2028 2028 
2028 2028 2028 2028 2028 2028 2028 2028 2028 
2028 2028 2028 2028 2028 2028 2028 2028 2028 
2028 2028 2028 2028 2028 2028 2028 2028 2028 
2028 2028 2028 2028 2028 2028 2028 2028 2028 
2028 2028 2028 2028 2028 2028 2028 2028 2028 
2028 2028 2028 2028 2028 2028 2028 2028 2028 
2028 2028 2028 2028 2028 2028 2028 2028 2028 
2028 2028 2028 2028 2028 2028 2028 2028 2028 
2028 2028 2028 2028 2028 2028 2028 2028 2028 
2028 2028 2028 2028 2028 2028 2028 2028 2028 
2028 2028 2028 2028 2028 2028 2028 2028 2028 
2028 2028 2028 2028 2028 2028 2028 2028 2028 
2028 2028 2028 2028 2028 2028 2028 2028 2028 
2028 2028 2028 2028 2028 2028 2028 2028 2028 
2028 2028 2028 2028 2028 2028 2028 2028 2028 
2028 2028 2028 2028 2028 2028 2028 2028 2028 
2028 2028 2028 2028 2028 2028 2028 2028 2028 
2028 2028 2028 2028 2028 2028 2028 2028 2028 
2028 2028 2028 2028 2028 2028 2028 2028 2028 
2028 2028 2028 2028 2028 2028 2028 2028 2028 
2028 2028 2028 2028 2028 2028 2028 2028 2028 
2028 2028 2028 2028 2028 2028 2028 2028 2028 
2028 2028 2028 2028 2028 2028 2028 2028 2028 
2028 2028 2028 2028 2028 2028 2028 2028 2028 
2028 2028 2028 2028 2028 2028 2028 2028 2028 
2028 2028 2028 2028 2028 2028 2028 2028 2028 
2028 2028 2028 2028 2028 2028 2028 2028 2028 
2028 2028 2028 2028 2028 2028 2028 2028 2028 
2028 2028 2028 2028 2028 2028 2028 2028 2028 
2028 2028 2028 2028 2028 2028 2028 2028 2028 
2028 2028 2028 2028 2028 2028 2028 2028 2028 
2028 2028 2028 2028 2028 2028 2028 2028 2028 
2028 2028 2028 2028 2028 2028 2028 2028 2028 
2028 2028 2028 2028 2028 2028 2028 2028 2028 
2028 2028 2028 2028 2028 2028 2028 2028 2028 
2028 2028 2028 2028 2028 2028 2028 2028 2028 
2028 2028 2028 2028 2028 2028 2028 2028 2028 
2028 2028 2028 2028 2028 2028 2028 2028 2028 
2028 2028 2028 2028 2028 2028 2028 2028 2028 
2028 2028 2028 2028 2028 2028 2028 2028 2028 
2028 2028 2028 2028 2028 2028 2028 2028 2028 
2028 2028 2028 2028 2028 2028 2028 2028 2028 
2028 2028 2028 2028 2028 2028 2028 2028 2028 
2028 2028 2028 2028 2028 2028 2028 2028 2028 
2028 2028 2028 2028 2028 2028 2028 2028 2028 
2028 2028 2028 2028 2028 2028 2028 2028 2028 
2028 2028 2028 2028 2028 2028 2028 2028 2028 
2028 2028 2028 2028 2028 2028 2028 2028 2028 
2028 2028 2028 2028 2028 2028 2028 2028 2028 
2028 2028 2028 2028 2028 2028 2028 2028 2028 
2028 2028 2028 2028 2028 2028 2028 2028 2028 
2028 2028 2028 2028 2028 2028 2028 2028 2028 
2028 2028 2028 2028 2028 2028 2028 2028 2028 
2028 2028 2028 2028 2028 2028 2028 2028 2028 
2028 2028 2028 2028 2028 2028 2028 2028 2028 
2028 2028 2028 2028 2028 2028 2028 2028 2028 
2028 2028 2028 2028 2028 2028 2028 2028 2028 
2028 2028 2028 2028 2028 2028 2028 2028 2028 
2028 2028 2028 2028 2028 2028 2028 2028 2028 
2028 2028 2028 2028 2028 2028 2028 2028 2028 
2028 2028 2028 2028 2028 2028 2028 2028 2028 
2028 2028 2028 2028 2028 2028 2028 2028 2028 
2028 2028 2028 2028 2028 2028 2028 2028 2028 
2028 2028 2028 2028 2028 2028 2028 2028 2028 
2028 2028 2028 2028 2028 2028 2028 2028 2028 
2028 2028 2028 2028 2028 2028 2028 2028 2028 
2028 2028 2028 2028 2028 2028 2028 2028 2028 
2028 2028 2028 2028 2028 2028 2028 2028 2028 
2028 2028 2028 2028 2028 2028 2028 2028 2028 
2028 2028 2028 2028 2028 2028 2028 2028 2028 
2028 2028 2028 2028 2028 2028 2028 2028 2028 
2028 2028 2028 2028 2028 2028 2028 2028 2028 
2028 2028 2028 2028 2028 2028 2028 2028 2028 
2028 2028 2028 2028 2028 2028 2028 2028 2028 
2028 2028 2028 2028 2028 2028 2028 2028 2028 
2028 2028 2028 2028 2028 2028 2028 2028 2028 
2028 2028 2028 2028 2028 2028 2028 2028 2028 
2028 2028 2028 2028 2028 2028 2028 2028 2028 
2028 2028 2028 2028 2028 2028 2028 2028 2028 
2028 2028 2028 2028 2028 2028 2028 2028 2028 
2028 2028 2028 2028 2028 2028 2028 2028 2028 
2028 2028 2028 2028 2028 2028 2028 2028 2028 
2028 2028 2028 2028 2028 2028 2028 2028 2028 
2028 2028 2028 2028 2028 2028 2028 2028 2028 
2028 2028 2028 2028 2028 2028 2028 2028 2028 
2028 2028 2028 2028 2028 2028 2028 2028 2028 
2028 2028 2028 2028 2028 2028 2028 2028 2028 
2028 2028 2028 2028 2028 2028 2028 2028 2028 
2028 2028 2028 2028 2028 2028 2028 2028 2028 
2028 2028 2028 2028 2028 2028 2028 2028 2028 
2028 2028 2028 2028 2028 2028 2028 2028 2028 
2028 2028 2028 2028 2028 2028 2028 2028 2028 
2028 2028 2028 2028 2028 2028 2028 2028 2028 
2028 2028 2028 2028 2028 2028 2028 2028 2028 
2028 2028 2028 2028 2028 2028 2028 2028 2028 
2028 2028 2028 2028 2028 2028 2028 2028 2028 
2028 2028 2028 2028 2028 2028 2028 2028 2028 
2028 2028 2028 2028 2028 2028 2028 2028 2028 
2028 2028 2028 2028 2028 2028 2028 2028 2028 
2028 2028 2028 2028 2028 2028 2028 2028 2028 
2028 2028 2028 2028 2028 2028 2028 2028 2028 
2028 2028 2028 2028 2028 2028 2028 2028 2028 
2028 2028 2028 2028 2028 2028 2028 2028 2028 
2028 2028 2028 2028 2028 2028 2028 2028 2028 
2028 2028 2028 2028 2028 2028 2028 2028 2028 
2028 2028 2028 2028 2028 2028 2028 2028 2028 
2028 2028 2028 2028 2028 2028 2028 2028 2028 
2028 2028 2028 2028 2028 2028 2028 2028 2028 
2028 2028 2028 2028 2028 2028 2028 2028 2028 
2028 2028 2028 2028 2028 2028 2028 2028 2028 
2028 2028 2028 2028 2028 2028 2028 2028 2028 
2028 2028 2028 2028 2028 2028 2028 2028 2028 
2028 2028 2028 2028 2028 2028 2028 2028 2028 
2028 2028 2028 2028 2028 2028 2028 2028 2028 
2028 2028 2028 2028 2028 2028 2028 2028 2028 
2028 2028 2028 2028 2028 2028 2028 2028 2028 
2028 2028 2028 2028 2028 2028 2028 2028 2028 
2028 2028 2028 2028 2028 2028 2028 2028 2028 
2028 2028 2028 2028 2028 2028 2028 2028 2028 
2028 2028 2028 2028 2028 2028 2028 2028 2028 
2028 2028 2028 2028 2028 2028 2028 2028 2028 