# vtk DataFile Version 4.0
vtk output
ASCII
DATASET POLYDATA
POINTS 11932 float
62.0169 -13.1667 26.6584 62.0918 -13.4922 27.2479 62.5544 -13.3484 26.847 
61.6315 -13.7075 27.1812 62.646 -13.1725 26.0781 63.1435 -13.5467 26.4464 
63.2612 -13.5681 25.8448 62.0033 -13.0743 25.8323 61.6228 -13.55 26.2541 
62.8378 -13.3902 25.3922 62.5647 -13.4366 24.6128 62.1722 -13.1678 25.0406 
61.5307 -13.5838 25.2774 61.9881 -13.2157 23.9491 62.4346 -13.4317 23.6556 
61.4867 -13.4546 24.261 61.9793 -13.2132 22.9504 62.4716 -13.6076 22.6468 
61.4753 -13.4658 23.2422 62.0833 -13.2815 22.1831 62.3078 -13.7291 21.7328 
61.5897 -13.4592 22.3163 59.9995 -13.1884 21.6568 60.1093 -13.5361 22.2389 
60.5603 -13.3554 21.7845 59.5803 -13.7163 22.1854 61.8859 -13.5254 21.7178 
61.0198 -13.4397 21.4803 61.2909 -13.536 21.1372 60.7336 -13.2064 21.2055 
60.1833 -13.1485 20.9601 59.5913 -13.5376 21.2862 60.915 -13.6746 20.5112 
59.9494 -13.6471 20.6495 63.8603 -14.2325 28.6863 64.1548 -14.5609 29.2836 
64.5975 -14.4156 28.8548 63.5386 -14.5596 29.1901 64.8176 -14.1433 27.9281 
65.2025 -14.5258 28.4431 65.6347 -14.407 27.8123 63.8205 -14.0025 27.876 
63.0303 -14.4108 28.7194 62.9323 -14.1144 28.1354 62.0537 -13.9758 27.7516 
62.2623 -14.4787 28.4537 61.6199 -14.6008 28.0609 65.7102 -14.207 27.0655 
66.1974 -14.5312 27.3812 66.341 -14.4826 26.9706 64.8722 -13.9951 26.848 
64.1764 -13.9633 27.1787 63.0385 -13.7994 27.2188 61.4696 -14.488 27.0102 
66.1584 -14.5744 26.4708 65.6037 -14.4435 25.6513 65.0743 -14.097 25.9955 
63.9036 -13.883 26.138 61.3631 -14.5138 26.1136 64.8695 -14.1792 24.9895 
65.4031 -14.4431 25.0718 63.9929 -13.9877 24.9801 63.2545 -13.7651 25.1541 
61.0217 -14.2758 25.5117 60.7543 -13.9526 24.7512 59.9436 -14.2518 24.7767 
60.2831 -14.4608 25.4418 59.5403 -14.7512 25.1102 65.1062 -14.5577 24.4732 
64.5283 -14.4745 23.912 64.0284 -14.1559 24.0699 63.1002 -13.8168 24.2242 
60.8049 -13.8391 23.7145 60.0354 -14.1288 23.9711 59.6347 -14.6042 24.1011 
64.0983 -14.5605 23.4384 63.4885 -14.4544 22.9736 63.1145 -13.9991 23.3004 
60.9849 -13.802 22.8049 60.1631 -13.9381 22.9251 59.6125 -14.5307 22.8556 
63.144 -14.4805 22.5768 62.6741 -14.5171 21.8192 61.0713 -13.6828 21.923 
59.3725 -14.29 21.8046 61.8433 -13.8318 21.1027 62.3712 -14.5565 20.8652 
59.5036 -14.5749 20.9363 61.8128 -14.2376 20.3457 61.2039 -14.1724 19.9741 
61.6538 -14.6056 19.8309 60.5808 -14.2669 19.9456 60.0129 -14.3503 20.2452 
60.8915 -14.8049 19.6081 52.7124 -14.1584 9.83129 52.9468 -14.594 10.271 
53.5026 -14.618 9.87524 51.7468 -14.0416 9.84093 52.3037 -14.6665 10.4902 
50.723 -14.031 9.80124 51.1005 -14.5658 10.4824 49.9842 -14.1629 9.72789 
50.1898 -14.4392 10.2191 49.5312 -14.647 10.0588 53.0288 -14.1799 9.19211 
53.3565 -14.5202 8.87531 52.2885 -14.0225 9.12325 51.2923 -14.0068 9.12007 
50.3331 -14.1017 9.11256 49.5632 -14.4178 9.27027 52.713 -14.4212 8.51865 
51.7551 -14.5808 8.46846 50.7636 -14.55 8.60075 49.8154 -14.6794 8.64999 
66.728 -15.1746 29.8401 67.0633 -15.6217 30.5011 67.3519 -15.5829 29.8887 
65.765 -15.1186 29.8636 66.3244 -15.4736 30.4908 64.8136 -15.1599 29.9896 
65.3086 -15.4809 30.4958 63.8103 -15.0021 29.764 64.2742 -15.4829 30.5102 
62.7489 -15.2146 29.7514 63.1031 -15.677 30.514 62.3872 -15.6524 30.1334 
66.9131 -15.1001 28.972 67.5731 -15.5646 28.8285 66.1673 -14.9526 29.1601 
65.053 -14.8201 29.216 62.8699 -14.7817 29.1533 62.114 -15.4346 29.6246 
62.1056 -14.9984 29.0194 61.5972 -15.4195 28.9891 67.046 -15.125 28.0921 
67.5701 -15.4612 27.6829 66.1232 -14.8073 28.196 61.3604 -15.3713 27.997 
66.8129 -14.966 27.1911 67.4463 -15.4634 27.0408 61.4247 -15.655 26.7918 
59.7983 -15.25 26.6552 60.1268 -15.6067 27.2471 60.5702 -15.7335 26.6591 
59.4664 -15.7972 26.7943 67.0358 -15.4743 26.4714 66.2108 -14.9568 25.9504 
66.5808 -15.6693 25.6441 61.1213 -15.3797 26.3802 60.672 -14.9123 26.1613 
59.7073 -14.9377 25.9218 59.0247 -15.4524 26.4077 59.0886 -15.2441 26.1754 
58.7666 -15.5023 26.0189 65.8865 -14.9482 25.2013 66.2739 -15.6867 24.9764 
59.1325 -15.3952 25.553 59.5261 -15.2294 24.6973 65.778 -15.3291 24.4883 
65.0342 -14.9472 23.9328 65.5186 -15.7816 23.9608 60.6787 -15.2532 23.8481 
61.2425 -15.691 23.8389 61.1977 -15.691 24.3623 60.2882 -15.4865 24.4756 
59.9381 -15.0382 24.0113 64.7979 -15.346 23.4404 63.9954 -14.9515 22.9318 
64.459 -15.7892 22.9643 60.8808 -15.496 23.4192 60.1266 -15.0588 23.2951 
60.5012 -15.8468 22.9719 63.7451 -15.345 22.4771 63.1583 -15.0379 22.0695 
63.4784 -15.6994 22.0461 59.8997 -15.4473 22.6134 59.526 -15.3907 21.9258 
63.1139 -15.5163 21.4997 62.7562 -15.3242 20.881 59.4116 -15.7259 21.1035 
62.1496 -14.8599 20.0654 62.5583 -15.4594 20.0857 60.117 -14.8521 19.8107 
59.5884 -15.452 20.2282 61.8084 -15.5325 19.5414 60.7887 -15.6727 19.3855 
60.0767 -15.5722 19.5873 44.0242 -15.2012 13.7387 44.0395 -15.682 14.2448 
44.4737 -15.4848 13.8757 43.4955 -15.6402 14.1695 51.8228 -15.1302 12.7458 
52.1858 -15.7297 13.3734 52.5849 -15.3543 12.8762 51.0154 -15.206 12.7732 
51.1243 -15.7993 13.5875 50.5152 -15.6154 13.0542 44.7844 -15.0879 12.9555 
44.9902 -15.8305 13.4338 45.469 -15.5046 12.8286 43.9781 -15.0711 12.89 
43.4372 -15.4013 13.2946 53.9409 -15.1914 11.8827 54.1315 -15.6459 12.4695 
54.4733 -15.4974 11.8598 52.8977 -15.1757 11.9143 53.3375 -15.4327 12.6315 
51.8289 -14.9712 11.822 51.1334 -15.0953 11.9652 50.5252 -15.4911 12.2431 
45.7685 -15.077 11.925 45.9179 -15.717 12.4673 46.5175 -15.631 11.9887 
45.0158 -14.8975 11.9849 44.3314 -15.0757 11.9366 43.5319 -15.4207 12.2898 
54.813 -15.1229 10.9634 54.9591 -15.8136 11.4147 55.49 -15.5088 10.8387 
53.824 -15.0635 10.9745 53.2846 -15.4839 11.1714 52.8596 -15.5174 11.2602 
52.6535 -15.3998 10.9228 52.0796 -15.0428 11.1543 51.0788 -15.0428 11.1298 
50.4562 -15.4954 11.322 48.9324 -15.2417 10.596 49.1603 -15.6944 11.1847 
49.4842 -15.5598 10.936 48.5751 -15.6553 11.1038 46.7866 -15.0981 10.8689 
47.1221 -15.5635 11.3466 47.5229 -15.4015 10.7991 46.0039 -14.899 10.9516 
45.2372 -15.0505 11.0054 44.4176 -15.3668 11.0986 43.8217 -15.4921 11.5187 
55.6636 -15.2132 10.1134 56.1615 -15.8517 10.4103 56.2505 -15.582 9.85239 
54.9044 -14.9418 9.8662 54.3101 -14.8703 10.1512 53.1221 -15.1986 10.6733 
50.0369 -15.1643 10.6818 48.8537 -14.8192 9.66768 48.1124 -15.4454 10.712 
47.9302 -15.0859 10.1794 47.1986 -15.07 9.73027 46.1919 -15.0914 10.1447 
45.547 -15.4275 10.1114 44.806 -15.7653 10.4847 55.8781 -15.384 9.42794 
55.8077 -15.4052 8.83631 55.1615 -15.066 8.92548 54.0625 -14.8193 9.06001 
49.0795 -14.8188 8.91886 48.1788 -15.0898 9.13861 47.4172 -15.3601 9.03825 
46.6517 -15.6226 9.33581 45.9744 -15.6752 9.67354 55.7409 -15.2734 8.21009 
56.1712 -15.566 8.37831 56.2287 -15.5725 7.79756 54.9912 -15.1054 7.82751 
54.0347 -14.9458 7.95223 53.2013 -14.7899 8.11526 52.3112 -15.0132 7.76464 
51.4832 -15.5758 7.83442 50.9014 -15.2993 8.23835 49.9494 -15.5103 8.34331 
48.904 -15.4664 8.55249 47.8063 -15.7321 8.63372 55.6693 -15.46 7.50582 
54.9329 -15.3503 7.27876 54.5003 -15.4453 6.94496 54.177 -15.1612 7.19805 
53.129 -15.1338 7.17262 52.3426 -15.3971 7.05931 51.8969 -15.6096 7.34762 
53.8453 -15.7237 6.51234 52.7172 -15.75 6.6171 65.8408 -16.1483 31.7703 
65.9922 -16.4683 32.3687 66.5505 -16.4902 31.9981 64.7235 -16.1136 31.8396 
65.3035 -16.4721 32.486 63.7624 -16.1836 31.7095 64.1021 -16.6713 32.5026 
63.3887 -16.6638 32.0219 66.7422 -16.0355 31.1707 67.1168 -16.6371 31.5795 
67.3988 -16.3962 30.8692 65.8992 -15.8091 31.011 65.0121 -15.8263 31.1337 
64.0021 -15.8206 31.1348 62.9216 -16.6846 31.5784 63.2314 -16.0457 31.1511 
62.5071 -16.4901 30.9963 67.7287 -16.3366 29.9236 61.6546 -15.9186 29.8943 
62.1236 -16.2156 30.5241 60.993 -16.2616 29.7887 61.3476 -16.609 30.2957 
60.8074 -16.8107 29.7429 67.9908 -16.1059 29.0599 68.1031 -16.6315 29.5693 
68.3351 -16.5971 28.9254 60.9084 -15.9774 28.9054 60.4896 -16.6499 29.1662 
68.0615 -15.9497 28.2173 68.4156 -16.6073 27.979 60.978 -15.8279 27.878 
60.0516 -16.4474 28.6383 59.9117 -15.9653 27.8697 58.9004 -16.1822 27.7045 
59.2757 -16.6272 28.4139 58.5963 -16.6972 28.1647 67.9317 -15.9695 27.1748 
68.3685 -16.8196 26.8615 60.7752 -15.8727 27.2899 59.0417 -16.0357 27.1671 
58.6328 -16.509 27.2428 67.7418 -16.2941 26.3995 67.173 -16.0842 26.0239 
67.5102 -16.4795 25.9797 62.7758 -16.2153 25.8672 63.2663 -16.6648 25.879 
63.2498 -16.6173 26.4121 62.268 -16.3636 26.5282 61.8581 -15.9978 25.8747 
61.149 -16.3541 26.7756 60.8933 -15.8751 26.0146 59.9355 -15.9856 26.1657 
60.0634 -16.3746 26.6025 59.1479 -16.4176 26.7517 59.1233 -15.7584 25.9886 
67.2074 -16.5553 25.5706 66.6611 -16.4035 25.0331 62.9311 -16.465 25.4288 
62.0891 -16.1307 24.9883 62.5374 -16.8214 24.9347 61.04 -15.8644 25.0939 
59.86 -15.8216 25.3082 66.1627 -16.3532 24.4732 65.5995 -16.7561 23.9828 
61.9714 -16.7267 24.5377 61.4862 -16.3678 24.1753 64.9674 -16.399 23.4725 
64.4119 -16.6004 23.0529 61.0712 -16.1824 23.5161 60.5529 -16.5444 23.128 
63.8367 -16.4637 22.5757 63.4171 -16.4825 21.807 60.0051 -16.2255 22.5343 
59.5088 -16.401 21.8756 63.6745 -16.1354 20.9978 64.0916 -16.7494 21.4675 
64.235 -16.6896 20.8609 63.1297 -15.7504 20.8666 59.2859 -16.525 20.7995 
63.8788 -16.4692 20.429 63.504 -16.8277 19.8867 63.2068 -16.0252 20.2786 
59.5713 -16.3356 19.9131 62.6723 -16.4715 19.5749 61.8106 -16.6597 19.3636 
60.9848 -16.5336 19.3695 60.0875 -16.511 19.5159 62.775 -16.2041 14.9754 
63.134 -16.6975 15.3333 63.3323 -16.732 14.7875 61.7554 -16.054 14.9337 
62.1865 -16.5542 15.3231 60.703 -16.0335 14.9254 61.0008 -16.4135 15.3163 
59.7643 -16.1505 14.8108 60.1952 -16.3738 15.2673 59.5867 -16.6795 14.8979 
43.0353 -16.1922 14.6826 43.1984 -16.7625 15.2139 43.4122 -16.4764 14.985 
42.6917 -16.7504 14.9759 62.932 -16.3456 14.4383 62.606 -16.4251 14.0072 
62.129 -16.0948 14.1349 61.0429 -15.9065 14.0348 60.1597 -15.9053 14.1773 
58.8728 -16.6198 14.6418 59.1472 -16.1405 13.9826 58.2348 -16.2858 13.9687 
58.0621 -16.6177 14.3858 57.5997 -16.6591 14.153 54.8189 -16.1604 13.8417 
55.2155 -16.7637 14.4087 55.6491 -16.4137 13.9447 53.7742 -16.1562 13.8211 
[...]
CELL_DATA 23892
SCALARS scalars float
LOOKUP_TABLE default
2031 2031 2031 2031 2031 2031 2031 2031 2031 
2031 2031 2031 2031 2031 2031 2031 2031 2031 
2031 2031 2031 2031 2031 2031 2031 2031 2031 
2031 2031 2031 2031 2031 2031 2031 2031 2031 
2031 2031 2031 2031 2031 2031 2031 2031 2031 
2031 2031 2031 2031 2031 2031 2031 2031 2031 
2031 2031 2031 2031 2031 2031 2031 2031 2031 
2031 2031 2031 2031 2031 2031 2031 2031 2031 
2031 2031 2031 2031 2031 2031 2031 2031 2031 
2031 2031 2031 2031 2031 2031 2031 2031 2031 
2031 2031 2031 2031 2031 2031 2031 2031 2031 
2031 2031 2031 2031 2031 2031 2031 2031 2031 
2031 2031 2031 2031 2031 2031 2031 2031 2031 
2031 2031 2031 2031 2031 2031 2031 2031 2031 
2031 2031 2031 2031 2031 2031 2031 2031 2031 
2031 2031 2031 2031 2031 2031 2031 2031 2031 
2031 2031 2031 2031 2031 2031 2031 2031 2031 
2031 2031 2031 2031 2031 2031 2031 2031 2031 
2031 2031 2031 2031 2031 2031 2031 2031 2031 
2031 2031 2031 2031 2031 2031 2031 2031 2031 
2031 2031 2031 2031 2031 2031 2031 2031 2031 
2031 2031 2031 2031 2031 2031 2031 2031 2031 
2031 2031 2031 2031 2031 2031 2031 2031 2031 
2031 2031 2031 2031 2031 2031 2031 2031 2031 
2031 2031 2031 2031 2031 2031 2031 2031 2031 
2031 2031 2031 2031 2031 2031 2031 2031 2031 
2031 2031 2031 2031 2031 2031 2031 2031 2031 
2031 2031 2031 2031 2031 2031 2031 2031 2031 
2031 2031 2031 2031 2031 2031 2031 2031 2031 
2031 2031 2031 2031 2031 2031 2031 2031 2031 
2031 2031 2031 2031 2031 2031 2031 2031 2031 
2031 2031 2031 2031 2031 2031 2031 2031 2031 
2031 2031 2031 2031 2031 2031 2031 2031 2031 
2031 2031 2031 2031 2031 2031 2031 2031 2031 
2031 2031 2031 2031 2031 2031 2031 2031 2031 
2031 2031 2031 2031 2031 2031 2031 2031 2031 
2031 2031 2031 2031 2031 2031 2031 2031 2031 
2031 2031 2031 2031 2031 2031 2031 2031 2031 
2031 2031 2031 2031 2031 2031 2031 2031 2031 
2031 2031 2031 2031 2031 2031 2031 2031 2031 
2031 2031 2031 2031 2031 2031 2031 2031 2031 
2031 2031 2031 2031 2031 2031 2031 2031 2031 
2031 2031 2031 2031 2031 2031 2031 2031 2031 
2031 2031 2031 2031 2031 2031 2031 2031 2031 
2031 2031 2031 2031 2031 2031 2031 2031 2031 
2031 2031 2031 2031 2031 2031 2031 2031 2031 
2031 2031 2031 2031 2031 2031 2031 2031 2031 
2031 2031 2031 2031 2031 2031 2031 2031 2031 
2031 2031 2031 2031 2031 2031 2031 2031 2031 
2031 2031 2031 2031 2031 2031 2031 2031 2031 
2031 2031 2031 2031 2031 2031 2031 2031 2031 
2031 2031 2031 2031 2031 2031 2031 2031 2031 
2031 2031 2031 2031 2031 2031 2031 2031 2031 
2031 2031 2031 2031 2031 2031 2031 2031 2031 
2031 2031 2031 2031 2031 2031 2031 2031 2031 
2031 2031 2031 2031 2031 2031 2031 2031 2031 
2031 2031 2031 2031 2031 2031 2031 2031 2031 
2031 2031 2031 2031 2031 2031 2031 2031 2031 
2031 2031 2031 2031 2031 2031 2031 2031 2031 
2031 2031 2031 2031 2031 2031 2031 2031 2031 
2031 2031 2031 2031 2031 2031 2031 2031 2031 
2031 2031 2031 2031 2031 2031 2031 2031 2031 
2031 2031 2031 2031 2031 2031 2031 2031 2031 
2031 2031 2031 2031 2031 2031 2031 2031 2031 
2031 2031 2031 2031 2031 2031 2031 2031 2031 
2031 2031 2031 2031 2031 2031 2031 2031 2031 
2031 2031 2031 2031 2031 2031 2031 2031 2031 
2031 2031 2031 2031 2031 2031 2031 2031 2031 
2031 2031 2031 2031 2031 2031 2031 2031 2031 
2031 2031 2031 2031 2031 2031 2031 2031 2031 
2031 2031 2031 2031 2031 2031 2031 2031 2031 
2031 2031 2031 2031 2031 2031 2031 2031 2031 
2031 2031 2031 2031 2031 2031 2031 2031 2031 
2031 2031 2031 2031 2031 2031 2031 2031 2031 
2031 2031 2031 2031 2031 2031 2031 2031 2031 
2031 2031 2031 2031 2031 2031 2031 2031 2031 
2031 2031 2031 2031 2031 2031 2031 2031 2031 
2031 2031 2031 2031 2031 2031 2031 2031 2031 
2031 2031 2031 2031 2031 2031 2031 2031 2031 
2031 2031 2031 2031 2031 2031 2031 2031 2031 
2031 2031 2031 2031 2031 2031 2031 2031 2031 
2031 2031 2031 2031 2031 2031 2031 2031 2031 
2031 2031 2031 2031 2031 2031 2031 2031 2031 
2031 2031 2031 2031 2031 2031 2031 2031 2031 
2031 2031 2031 2031 2031 2031 2031 2031 2031 
2031 2031 2031 2031 2031 2031 2031 2031 2031 
2031 2031 2031 2031 2031 2031 2031 2031 2031 
2031 2031 2031 2031 2031 2031 2031 2031 2031 
2031 2031 2031 2031 2031 2031 2031 2031 2031 
2031 2031 2031 2031 2031 2031 2031 2031 2031 
2031 2031 2031 2031 2031 2031 2031 2031 2031 
2031 2031 2031 2031 2031 2031 2031 2031 2031 
2031 2031 2031 2031 2031 2031 2031 2031 2031 
2031 2031 2031 2031 2031 2031 2031 2031 2031 
2031 2031 2031 2031 2031 2031 2031 2031 2031 
2031 2031 2031 2031 2031 2031 2031 2031 2031 
2031 2031 2031 2031 2031 2031 2031 2031 2031 
2031 2031 2031 2031 2031 2031 2031 2031 2031 
2031 2031 2031 2031 2031 2031 2031 2031 2031 
2031 2031 2031 2031 2031 2031 2031 2031 2031 
2031 2031 2031 2031 2031 2031 2031 2031 2031 
2031 2031 2031 2031 2031 2031 2031 2031 2031 
2031 2031 2031 2031 2031 2031 2031 2031 2031 
2031 2031 2031 2031 2031 2031 2031 2031 2031 
2031 2031 2031 2031 2031 2031 2031 2031 2031 
2031 2031 2031 2031 2031 2031 2031 2031 2031 
2031 2031 2031 2031 2031 2031 2031 2031 2031 
2031 2031 2031 2031 2031 2031 2031 2031 2031 
2031 2031 2031 2031 2031 2031 2031 2031 2031 
2031 2031 2031 2031 2031 2031 2031 2031 2031 
2031 2031 2031 2031 2031 2031 2031 2031 2031 
2031 2031 2031 2031 2031 2031 2031 2031 2031 
2031 2031 2031 2031 2031 2031 2031 2031 2031 
2031 2031 2031 2031 2031 2031 2031 2031 2031 
2031 2031 2031 2031 2031 2031 2031 2031 2031 
2031 2031 2031 2031 2031 2031 2031 2031 2031 
2031 2031 2031 2031 2031 2031 2031 2031 2031 
2031 2031 2031 2031 2031 2031 2031 2031 2031 
2031 2031 2031 2031 2031 2031 2031 2031 2031 
2031 2031 2031 2031 2031 2031 2031 2031 2031 
2031 2031 2031 2031 2031 2031 2031 2031 2031 
2031 2031 2031 2031 2031 2031 2031 2031 2031 
2031 2031 2031 2031 2031 2031 2031 2031 2031 
2031 2031 2031 2031 2031 2031 2031 2031 2031 
2031 2031 2031 2031 2031 2031 2031 2031 2031 
2031 2031 2031 2031 2031 2031 2031 2031 2031 
2031 2031 2031 2031 2031 2031 2031 2031 2031 
2031 2031 2031 2031 2031 2031 2031 2031 2031 
2031 2031 2031 2031 2031 2031 2031 2031 2031 
2031 2031 2031 2031 2031 2031 2031 2031 2031 
2031 2031 2031 2031 2031 2031 2031 2031 2031 
2031 2031 2031 2031 2031 2031 2031 2031 2031 
2031 2031 2031 2031 2031 2031 2031 2031 2031 
2031 2031 2031 2031 2031 2031 2031 2031 2031 
2031 2031 2031 2031 2031 2031 2031 2031 2031 
2031 2031 2031 2031 2031 2031 2031 2031 2031 
2031 2031 2031 2031 2031 2031 2031 2031 2031 
2031 2031 2031 2031 2031 2031 2031 2031 2031 
2031 2031 2031 2031 2031 2031 2031 2031 2031 
2031 2031 2031 2031 2031 2031 2031 2031 2031 
2031 2031 2031 2031 2031 2031 2031 2031 2031 
2031 2031 2031 2031 2031 2031 2031 2031 2031 
2031 2031 2031 2031 2031 2031 2031 2031 2031 
2031 2031 2031 2031 2031 2031 2031 2031 2031 
2031 2031 2031 2031 2031 2031 2031 2031 2031 
2031 2031 2031 2031 2031 2031 2031 2031 2031 
2031 2031 2031 2031 2031 2031 2031 2031 2031 
2031 2031 2031 2031 2031 2031 2031 2031 2031 
2031 2031 2031 2031 2031 2031 2031 2031 2031 
2031 2031 2031 2031 2031 2031 2031 2031 2031 
2031 2031 2031 2031 2031 2031 2031 2031 2031 
2031 2031 2031 2031 2031 2031 2031 2031 2031 
2031 2031 2031 2031 2031 2031 2031 2031 2031 
2031 2031 2031 2031 2031 2031 2031 2031 2031 
2031 2031 2031 2031 2031 2031 2031 2031 2031 
2031 2031 2031 2031 2031 2031 2031 2031 2031 
2031 2031 2031 2031 2031 2031 2031 2031 2031 
2031 2031 2031 2031 2031 2031 2031 2031 2031 
2031 2031 2031 2031 2031 2031 2031 2031 2031 
2031 2031 2031 2031 2031 2031 2031 2031 2031 
2031 2031 2031 2031 2031 2031 2031 2031 2031 
2031 2031 2031 2031 2031 2031 2031 2031 2031 
2031 2031 2031 2031 2031 2031 2031 2031 2031 
2031 2031 2031 2031 2031 2031 2031 2031 2031 
2031 2031 2031 2031 2031 2031 2031 2031 2031 
2031 2031 2031 2031 2031 2031 2031 2031 2031 
2031 2031 2031 2031 2031 2031 2031 2031 2031 
2031 2031 2031 2031 2031 2031 2031 2031 2031 
2031 2031 2031 2031 2031 2031 2031 2031 2031 
2031 2031 2031 2031 2031 2031 2031 2031 2031 
2031 2031 2031 2031 2031 2031 2031 2031 2031 
2031 2031 2031 2031 2031 2031 2031 2031 2031 
2031 2031 2031 2031 2031 2031 2031 2031 2031 
2031 2031 2031 2031 2031 2031 2031 2031 2031 
2031 2031 2031 2031 2031 2031 2031 2031 2031 
2031 2031 2031 2031 2031 2031 2031 2031 2031 
2031 2031 2031 2031 2031 2031 2031 2031 2031 
2031 2031 2031 2031 2031 2031 2031 2031 2031 
2031 2031 2031 2031 2031 2031 2031 2031 2031 
2031 2031 2031 2031 2031 2031 2031 2031 2031 
2031 2031 2031 2031 2031 2031 2031 2031 2031 
2031 2031 2031 2031 2031 2031 2031 2031 2031 
2031 2031 2031 2031 2031 2031 2031 2031 2031 
2031 2031 2031 2031 2031 2031 2031 2031 2031 
2031 2031 2031 2031 2031 2031 2031 2031 2031 
2031 2031 2031 2031 2031 2031 2031 2031 2031 
2031 2031 2031 2031 2031 2031 2031 2031 2031 
2031 2031 2031 2031 2031 2031 2031 2031 2031 
2031 2031 2031 2031 2031 2031 2031 2031 2031 
2031 2031 2031 2031 2031 2031 2031 2031 2031 
2031 2031 2031 2031 2031 2031 2031 2031 2031 
2031 2031 2031 2031 2031 2031 2031 2031 2031 
2031 2031 2031 2031 2031 2031 2031 2031 2031 
2031 2031 2031 2031 2031 2031 2031 2031 2031 
2031 2031 2031 2031 2031 2031 2031 2031 2031 
2031 2031 2031 2031 2031 2031 2031 2031 2031 
2031 2031 2031 2031 2031 2031 2031 2031 2031 
2031 2031 2031 2031 2031 2031 2031 2031 2031 
2031 2031 2031 2031 2031 2031 2031 2031 2031 
2031 2031 2031 2031 2031 2031 2031 2031 2031 
2031 2031 2031 2031 2031 2031 2031 2031 2031 
2031 2031 2031 2031 2031 2031 2031 2031 2031 
2031 2031 2031 2031 2031 2031 2031 2031 2031 
2031 2031 2031 2031 2031 2031 2031 2031 2031 
2031 2031 2031 2031 2031 2031 2031 2031 2031 
2031 2031 2031 2031 2031 2031 2031 2031 2031 
2031 2031 2031 2031 2031 2031 2031 2031 2031 
2031 2031 2031 2031 2031 2031 2031 2031 2031 
2031 2031 2031 2031 2031 2031 2031 2031 2031 
2031 2031 2031 2031 2031 2031 2031 2031 2031 
2031 2031 2031 2031 2031 2031 2031 2031 2031 
2031 2031 2031 2031 2031 2031 2031 2031 2031 
2031 2031 2031 2031 2031 2031 2031 2031 2031 
2031 2031 2031 2031 2031 2031 2031 2031 2031 
2031 2031 2031 2031 2031 2031 2031 2031 2031 
2031 2031 2031 2031 2031 2031 2031 2031 2031 
2031 2031 2031 2031 2031 2031 2031 2031 2031 
2031 2031 2031 2031 2031 2031 2031 2031 2031 
2031 2031 2031 2031 2031 2031 2031 2031 2031 
2031 2031 2031 2031 2031 2031 2031 2031 2031 
2031 2031 2031 2031 2031 2031 2031 2031 2031 
2031 2031 2031 2031 2031 2031 2031 2031 2031 
2031 2031 2031 2031 2031 2031 2031 2031 2031 
2031 2031 2031 2031 2031 2031 2031 2031 2031 
2031 2031 2031 2031 2031 2031 2031 2031 2031 
2031 2031 2031 2031 2031 2031 2031 2031 2031 
2031 2031 2031 2031 2031 2031 2031 2031 2031 
2031 2031 2031 2031 2031 2031 2031 2031 2031 
2031 2031 2031 2031 2031 2031 2031 2031 2031 
2031 2031 2031 2031 2031 2031 2031 2031 2031 
2031 2031 2031 2031 2031 2031 2031 2031 2031 
2031 2031 2031 2031 2031 2031 2031 2031 2031 
2031 2031 2031 2031 2031 2031 2031 2031 2031 
2031 2031 2031 2031 2031 2031 2031 2031 2031 
2031 2031 2031 2031 2031 2031 2031 2031 2031 
2031 2031 2031 2031 2031 2031 2031 2031 2031 
2031 2031 2031 2031 2031 2031 2031 2031 2031 
2031 2031 2031 2031 2031 2031 2031 2031 2031 
2031 2031 2031 2031 2031 2031 2031 2031 2031 
2031 2031 2031 2031 2031 2031 2031 2031 2031 
2031 2031 2031 2031 2031 2031 2031 2031 2031 
2031 2031 2031 2031 2031 2031 2031 2031 2031 
2031 2031 2031 2031 2031 2031 2031 2031 2031 
2031 2031 2031 2031 2031 2031 2031 2031 2031 
2031 2031 2031 2031 2031 2031 2031 2031 2031 
2031 2031 2031 2031 2031 2031 2031 2031 2031 
2031 2031 2031 2031 2031 2031 2031 2031 2031 
2031 2031 2031 2031 2031 2031 2031 2031 2031 
2031 2031 2031 2031 2031 2031 2031 2031 2031 
2031 2031 2031 2031 2031 2031 2031 2031 2031 
2031 2031 2031 2031 2031 2031 2031 2031 2031 
2031 2031 2031 2031 2031 2031 2031 2031 2031 
2031 2031 2031 2031 2031 2031 2031 2031 2031 
2031 2031 2031 2031 2031 2031 2031 2031 2031 
2031 2031 2031 2031 2031 2031 2031 2031 2031 
2031 2031 2031 2031 2031 2031 2031 2031 2031 
2031 2031 2031 2031 2031 2031 2031 2031 2031 
2031 2031 2031 2031 2031 2031 2031 2031 2031 
2031 2031 2031 2031 2031 2031 2031 2031 2031 
2031 2031 2031 2031 2031 2031 2031 2031 2031 
2031 2031 2031 2031 2031 2031 2031 2031 2031 
2031 2031 2031 2031 2031 2031 2031 2031 2031 
2031 2031 2031 2031 2031 2031 2031 2031 2031 
2031 2031 2031 2031 2031 2031 2031 2031 2031 
2031 2031 2031 2031 2031 2031 2031 2031 2031 
2031 2031 2031 2031 2031 2031 2031 2031 2031 
2031 2031 2031 2031 2031 2031 2031 2031 2031 
2031 2031 2031 2031 2031 2031 2031 2031 2031 
2031 2031 2031 2031 2031 2031 2031 2031 2031 
2031 2031 2031 2031 2031 2031 2031 2031 2031 
2031 2031 2031 2031 2031 2031 2031 2031 2031 
2031 2031 2031 2031 2031 2031 2031 2031 2031 
2031 2031 2031 2031 2031 2031 2031 2031 2031 
2031 2031 2031 2031 2031 2031 2031 2031 2031 
2031 2031 2031 2031 2031 2031 2031 2031 2031 
2031 2031 2031 2031 2031 2031 2031 2031 2031 
2031 2031 2031 2031 2031 2031 2031 2031 2031 
2031 2031 2031 2031 2031 2031 2031 2031 2031 
2031 2031 2031 2031 2031 2031 2031 2031 2031 
2031 2031 2031 2031 2031 2031 2031 2031 2031 
2031 2031 2031 2031 2031 2031 2031 2031 2031 
2031 2031 2031 2031 2031 2031 2031 2031 2031 
2031 2031 2031 2031 2031 2031 2031 2031 2031 
2031 2031 2031 2031 2031 2031 2031 2031 2031 
2031 2031 2031 2031 2031 2031 2031 2031 2031 
2031 2031 2031 2031 2031 2031 2031 2031 2031 
2031 2031 2031 2031 2031 2031 2031 2031 2031 
2031 2031 2031 2031 2031 2031 2031 2031 2031 
2031 2031 2031 2031 2031 2031 2031 2031 2031 
2031 2031 2031 2031 2031 2031 2031 2031 2031 
2031 2031 2031 2031 2031 2031 2031 2031 2031 
2031 2031 2031 2031 2031 2031 2031 2031 2031 
2031 2031 2031 2031 2031 2031 2031 2031 2031 
2031 2031 2031 2031 2031 2031 2031 2031 2031 
2031 2031 2031 2031 2031 2031 2031 2031 2031 
2031 2031 2031 2031 2031 2031 2031 2031 2031 
2031 2031 2031 2031 2031 2031 2031 2031 2031 
2031 2031 2031 2031 2031 2031 2031 2031 2031 
2031 2031 2031 2031 2031 2031 2031 2031 2031 
2031 2031 2031 2031 2031 2031 2031 2031 2031 
2031 2031 2031 2031 2031 2031 2031 2031 2031 
2031 2031 2031 2031 2031 2031 2031 2031 2031 
2031 2031 2031 2031 2031 2031 2031 2031 2031 
2031 2031 2031 2031 2031 2031 2031 2031 2031 
2031 2031 2031 2031 2031 2031 2031 2031 2031 
2031 2031 2031 2031 2031 2031 2031 2031 2031 
2031 2031 2031 2031 2031 2031 2031 2031 2031 
2031 2031 2031 2031 2031 2031 2031 2031 2031 
2031 2031 2031 2031 2031 2031 2031 2031 2031 
2031 2031 2031 2031 2031 2031 2031 2031 2031 
2031 2031 2031 2031 2031 2031 2031 2031 2031 
2031 2031 2031 2031 2031 2031 2031 2031 2031 
2031 2031 2031 2031 2031 2031 2031 2031 2031 
2031 2031 2031 2031 2031 2031 2031 2031 2031 
2031 2031 2031 2031 2031 2031 2031 2031 2031 
2031 2031 2031 2031 2031 2031 2031 2031 2031 
2031 2031 2031 2031 2031 2031 2031 2031 2031 
2031 2031 2031 2031 2031 2031 2031 2031 2031 
2031 2031 2031 2031 2031 2031 2031 2031 2031 
2031 2031 2031 2031 2031 2031 2031 2031 2031 
2031 2031 2031 2031 2031 2031 2031 2031 2031 
2031 2031 2031 2031 2031 2031 2031 2031 2031 
2031 2031 2031 2031 2031 2031 2031 2031 2031 
2031 2031 2031 2031 2031 2031 2031 2031 2031 
2031 2031 2031 2031 2031 2031 2031 2031 2031 
2031 2031 2031 2031 2031 2031 2031 2031 2031 
2031 2031 2031 2031 2031 2031 2031 2031 2031 
2031 2031 2031 2031 2031 2031 2031 2031 2031 
2031 2031 2031 2031 2031 2031 2031 2031 2031 
2031 2031 2031 2031 2031 2031 2031 2031 2031 
2031 2031 2031 2031 2031 2031 2031 2031 2031 
2031 2031 2031 2031 2031 2031 2031 2031 2031 
2031 2031 2031 2031 2031 2031 2031 2031 2031 
2031 2031 2031 2031 2031 2031 2031 2031 2031 
2031 2031 2031 2031 2031 2031 2031 2031 2031 
2031 2031 2031 2031 2031 2031 2031 2031 2031 
2031 2031 2031 2031 2031 2031 2031 2031 2031 
2031 2031 2031 2031 2031 2031 2031 2031 2031 
2031 2031 2031 2031 2031 2031 2031 2031 2031 
2031 2031 2031 2031 2031 2031 2031 2031 2031 
2031 2031 2031 2031 2031 2031 2031 2031 2031 
2031 2031 2031 2031 2031 2031 2031 2031 2031 
2031 2031 2031 2031 2031 2031 2031 2031 2031 
2031 2031 2031 2031 2031 2031 2031 2031 2031 
2031 2031 2031 2031 2031 2031 2031 2031 2031 
2031 2031 2031 2031 2031 2031 2031 2031 2031 
2031 2031 2031 2031 2031 2031 2031 2031 2031 
2031 2031 2031 2031 2031 2031 2031 2031 2031 
2031 2031 2031 2031 2031 2031 2031 2031 2031 
2031 2031 2031 2031 2031 2031 2031 2031 2031 
2031 2031 2031 2031 2031 2031 2031 2031 2031 
2031 2031 2031 2031 2031 2031 2031 2031 2031 
2031 2031 2031 2031 2031 2031 2031 2031 2031 
2031 2031 2031 2031 2031 2031 2031 2031 2031 
2031 2031 2031 2031 2031 2031 2031 2031 2031 
2031 2031 2031 2031 2031 2031 2031 2031 2031 
2031 2031 2031 2031 2031 2031 2031 2031 2031 
2031 2031 2031 2031 2031 2031 2031 2031 2031 
2031 2031 2031 2031 2031 2031 2031 2031 2031 
2031 2031 2031 2031 2031 2031 2031 2031 2031 
2031 2031 2031 2031 2031 2031 2031 2031 2031 
2031 2031 2031 2031 2031 2031 2031 2031 2031 
2031 2031 2031 2031 2031 2031 2031 2031 2031 
2031 2031 2031 2031 2031 2031 2031 2031 2031 
2031 2031 2031 2031 2031 2031 2031 2031 2031 
2031 2031 2031 2031 2031 2031 2031 2031 2031 
2031 2031 2031 2031 2031 2031 2031 2031 2031 
2031 2031 2031 2031 2031 2031 2031 2031 2031 
2031 2031 2031 2031 2031 2031 2031 2031 2031 
2031 2031 2031 2031 2031 2031 2031 2031 2031 
2031 2031 2031 2031 2031 2031 2031 2031 2031 
2031 2031 2031 2031 2031 2031 2031 2031 2031 
2031 2031 2031 2031 2031 2031 2031 2031 2031 
2031 2031 2031 2031 2031 2031 2031 2031 2031 
2031 2031 2031 2031 2031 2031 2031 2031 2031 
2031 2031 2031 2031 2031 2031 2031 2031 2031 
2031 2031 2031 2031 2031 2031 2031 2031 2031 
2031 2031 2031 2031 2031 2031 2031 2031 2031 
2031 2031 2031 2031 2031 2031 2031 2031 2031 
2031 2031 2031 2031 2031 2031 2031 2031 2031 
2031 2031 2031 2031 2031 2031 2031 2031 2031 
2031 2031 2031 2031 2031 2031 2031 2031 2031 
2031 2031 2031 2031 2031 2031 2031 2031 2031 
2031 2031 2031 2031 2031 2031 2031 2031 2031 
2031 2031 2031 2031 2031 2031 2031 2031 2031 
2031 2031 2031 2031 2031 2031 2031 2031 2031 
2031 2031 2031 2031 2031 2031 2031 2031 2031 
2031 2031 2031 2031 2031 2031 2031 2031 2031 
2031 2031 2031 2031 2031 2031 2031 2031 2031 
2031 2031 2031 2031 2031 2031 2031 2031 2031 
2031 2031 2031 2031 2031 2031 2031 2031 2031 
2031 2031 2031 2031 2031 2031 2031 2031 2031 
2031 2031 2031 2031 2031 2031 2031 2031 2031 
2031 2031 2031 2031 2031 2031 2031 2031 2031 
2031 2031 2031 2031 2031 2031 2031 2031 2031 
2031 2031 2031 2031 2031 2031 2031 2031 2031 
2031 2031 2031 2031 2031 2031 2031 2031 2031 
2031 2031 2031 2031 2031 2031 2031 2031 2031 
2031 2031 2031 2031 2031 2031 2031 2031 2031 
2031 2031 2031 2031 2031 2031 2031 2031 2031 
2031 2031 2031 2031 2031 2031 2031 2031 2031 
2031 2031 2031 2031 2031 2031 2031 2031 2031 
2031 2031 2031 2031 2031 2031 2031 2031 2031 
2031 2031 2031 2031 2031 2031 2031 2031 2031 
2031 2031 2031 2031 2031 2031 2031 2031 2031 
2031 2031 2031 2031 2031 2031 2031 2031 2031 
2031 2031 2031 2031 2031 2031 2031 2031 2031 
2031 2031 2031 2031 2031 2031 2031 2031 2031 
2031 2031 2031 2031 2031 2031 2031 2031 2031 
2031 2031 2031 2031 2031 2031 2031 2031 2031 
2031 2031 2031 2031 2031 2031 2031 2031 2031 
2031 2031 2031 2031 2031 2031 2031 2031 2031 
2031 2031 2031 2031 2031 2031 2031 2031 2031 
2031 2031 2031 2031 2031 2031 2031 2031 2031 
2031 2031 2031 2031 2031 2031 2031 2031 2031 
2031 2031 2031 2031 2031 2031 2031 2031 2031 
2031 2031 2031 2031 2031 2031 2031 2031 2031 
2031 2031 2031 2031 2031 2031 2031 2031 2031 
2031 2031 2031 2031 2031 2031 2031 2031 2031 
2031 2031 2031 2031 2031 2031 2031 2031 2031 
2031 2031 2031 2031 2031 2031 2031 2031 2031 
2031 2031 2031 2031 2031 2031 2031 2031 2031 
2031 2031 2031 2031 2031 2031 2031 2031 2031 
2031 2031 2031 2031 2031 2031 2031 2031 2031 
2031 2031 2031 2031 2031 2031 2031 2031 2031 
2031 2031 2031 2031 2031 2031 2031 2031 2031 
2031 2031 2031 2031 2031 2031 2031 2031 2031 
2031 2031 2031 2031 2031 2031 2031 2031 2031 
2031 2031 2031 2031 2031 2031 2031 2031 2031 
2031 2031 2031 2031 2031 2031 2031 2031 2031 
2031 2031 2031 2031 2031 2031 2031 2031 2031 
2031 2031 2031 2031 2031 2031 2031 2031 2031 
2031 2031 2031 2031 2031 2031 2031 2031 2031 