# vtk DataFile Version 4.0
vtk output
ASCII
DATASET POLYDATA
POINTS 6708 float
5.79802 -61.1887 6.94212 6.10864 -61.503 7.33571 6.32279 -61.5331 6.69078 
5.25764 -61.2312 6.65501 5.33085 -61.4113 7.41223 4.69192 -61.5515 7.06843 
5.96202 -61.2423 6.23585 6.23628 -61.6094 6.04686 5.6048 -61.3949 6.01662 
4.98682 -61.8222 6.40098 6.04493 -61.4574 5.79631 3.00425 -62.2287 9.66438 
2.93306 -62.5265 10.2082 3.52951 -62.5912 10.0353 2.49151 -62.6126 10.1056 
5.90946 -62.2433 8.6593 6.20851 -62.5925 9.23614 6.65703 -62.4456 8.84312 
5.59902 -62.6155 9.15084 3.81723 -62.1651 8.97638 4.16553 -62.5713 9.40831 
4.54161 -62.4079 8.81153 3.16581 -62.163 8.7655 2.64997 -62.5397 9.32325 
6.77343 -62.2247 8.18626 7.21885 -62.5858 8.42801 7.47767 -62.5285 7.65751 
6.00026 -61.8336 7.89417 5.14332 -62.4317 8.71224 4.77204 -61.9585 8.03788 
3.77113 -62.1157 7.90125 3.42067 -62.5402 7.95265 2.93982 -62.4398 8.67402 
6.88681 -62.0255 7.04264 7.68594 -62.4287 6.88774 4.18086 -62.0014 7.02689 
3.753 -62.4035 7.10099 8.7974 -62.1639 5.66973 9.07167 -62.5815 6.26919 
9.55527 -62.4027 5.80271 7.79138 -62.1499 6.13058 8.33707 -62.5127 6.5064 
7.11985 -62.2123 5.81766 6.13564 -62.1388 6.33328 6.58269 -62.5691 6.04715 
5.86356 -61.7167 5.93292 5.10105 -62.5197 6.53564 4.26921 -62.4571 6.63757 
10.7352 -62.1664 4.783 11.1369 -62.5307 5.2808 11.355 -62.539 4.63107 
9.81426 -62.0921 5.08505 10.3678 -62.4563 5.54784 9.19196 -62.0751 4.66803 
8.15177 -62.145 5.09606 7.50131 -62.4831 5.16475 6.99255 -62.5117 5.59729 
23.0267 -62.3285 3.90914 23.1414 -62.5585 4.32096 23.2775 -62.7646 3.96528 
22.7821 -62.4867 4.08794 11.0492 -62.1931 4.11244 11.2268 -62.6174 3.99846 
10.2493 -62.1156 4.10704 9.52466 -62.4429 4.09825 8.76432 -62.3544 4.49227 
8.19917 -62.5186 4.69604 22.7689 -62.714 3.68435 10.8414 -62.3785 3.68175 
10.2766 -62.5249 3.67924 2.96991 -63.3785 11.997 2.92316 -63.8226 12.224 
3.17831 -63.6212 11.8338 2.58335 -63.6026 12.0858 4.81041 -63.2319 10.736 
5.08021 -63.8798 11.3455 5.56672 -63.4499 10.8777 3.84728 -63.1508 10.7279 
4.06923 -63.6462 11.2113 2.8506 -63.5266 11.7516 3.4916 -63.4965 11.0082 
1.6681 -63.8009 11.4264 2.35435 -63.5477 11.157 1.99863 -63.1874 10.6578 
1.37737 -63.6778 10.968 6.97469 -63.2168 9.88622 6.94163 -63.5281 10.4192 
7.51772 -63.5309 9.9805 5.83602 -63.0168 9.92876 6.33433 -63.5007 10.6037 
4.97456 -63.006 10.0204 4.32786 -62.8943 10.0689 2.94845 -63.1201 10.6665 
2.14031 -63.0199 9.864 1.65412 -63.5793 10.2587 7.91436 -63.1874 9.03494 
8.05413 -63.5127 9.46677 8.52931 -63.5264 8.96923 7.00851 -62.8363 9.1047 
4.91329 -62.778 9.33764 2.96299 -63.5301 9.3111 3.11581 -62.9086 8.71446 
3.54169 -63.4277 8.79366 2.24557 -63.7354 9.69823 9.84724 -63.2175 7.69817 
10.1082 -63.5807 8.29637 10.6032 -63.4419 7.84294 8.74386 -63.1435 8.01296 
9.33271 -63.5362 8.49555 7.84146 -62.8883 8.17465 3.99213 -63.5329 8.48658 
3.87807 -63.1374 7.99116 4.46581 -63.5644 7.99602 11.8532 -63.1985 6.76458 
12.1278 -63.593 7.31408 12.5864 -63.4574 6.80851 10.726 -63.1458 7.04752 
11.3569 -63.5168 7.5743 9.97015 -63.0407 6.98179 9.12901 -62.9196 6.96252 
8.17342 -62.8129 7.27491 5.88896 -63.0358 6.73035 6.55372 -63.4671 6.8011 
6.20598 -63.8367 7.26924 5.31034 -63.7435 7.51719 4.66587 -63.044 7.08388 
3.92249 -62.7786 7.13017 22.6731 -63.1656 5.92871 23.1147 -63.8342 6.40953 
23.474 -63.4884 5.71811 21.7339 -63.0656 5.90996 22.1713 -63.462 6.40666 
20.7984 -63.1701 5.72264 21.3336 -63.5079 6.247 20.7016 -63.6413 5.88192 
12.8173 -63.1439 5.9261 13.1539 -63.5739 6.40855 13.5878 -63.4289 5.82012 
12.0044 -62.9821 6.0222 11.1545 -62.8688 6.02539 9.97187 -62.827 6.33031 
6.9828 -63.5022 6.4713 6.95497 -62.9966 5.94454 7.4865 -63.5107 5.96807 
22.8914 -62.9021 4.91922 23.5601 -63.2625 4.69854 22.1699 -62.9369 5.20239 
21.2972 -63.0762 4.97337 20.0179 -63.7327 5.4933 20.1023 -63.2273 5.11614 
18.9814 -63.2411 5.01831 18.9775 -63.6253 5.33375 17.884 -63.1816 4.86061 
18.1284 -63.4848 5.30216 16.8204 -63.1641 4.68084 17.3089 -63.6721 5.35915 
16.5559 -63.5649 5.09082 14.9629 -63.1844 4.75844 15.0505 -63.5807 5.22489 
15.5542 -63.3807 4.73953 14.0272 -63.1554 4.94231 14.3259 -63.5098 5.49312 
12.9946 -63.1388 4.84102 11.9227 -62.9247 5.1725 9.20642 -63.7728 5.20649 
8.8927 -62.9704 4.66255 9.59106 -63.4397 4.72406 8.33885 -63.7023 5.49203 
7.86851 -62.9771 5.15044 23.5623 -63.3398 4.03982 22.1714 -62.9356 4.21905 
21.4625 -63.3911 4.1149 20.7041 -63.4894 4.4294 19.7473 -63.5009 4.53886 
18.7509 -63.4457 4.52252 17.9623 -63.343 4.346 17.5226 -63.6325 3.76721 
17.1931 -63.1298 4.21909 16.1306 -63.3584 4.65108 16.0575 -63.1274 4.16157 
15.0918 -63.1555 4.05797 14.4503 -63.3497 4.084 13.7019 -63.4522 4.33197 
12.7026 -63.7118 4.20217 12.2674 -63.542 3.92253 12.1488 -63.3175 4.20472 
11.4135 -63.4272 4.27504 11.7704 -63.524 3.92047 10.7172 -62.9314 3.85187 
10.367 -63.6889 4.46536 9.8772 -62.9904 4.10951 23.1583 -63.5005 3.48412 
22.1095 -63.3779 3.55923 20.9755 -63.4571 3.285 21.2756 -63.5106 3.13942 
20.9834 -63.3864 3.02588 20.6294 -63.7526 2.8893 16.6617 -63.5793 3.63147 
15.7435 -63.5851 3.51778 14.8487 -63.7163 3.57449 12.0038 -63.5249 3.81378 
21.198 -63.761 2.57536 3.02568 -64.8345 12.4273 3.45183 -64.2332 11.9352 
2.22512 -63.8632 11.7739 2.23393 -64.316 12.3418 1.60559 -64.5822 12.0383 
6.92147 -64.0102 10.8355 7.10304 -64.5871 11.3629 7.60794 -64.4787 10.832 
5.9439 -63.8482 11.1375 6.12265 -64.4107 11.5385 5.19826 -64.5416 11.6836 
4.22446 -64.3482 11.6251 3.1825 -63.7782 11.3658 1.10399 -64.1543 10.7883 
1.16528 -64.4925 11.3479 0.813486 -64.5548 10.9895 8.0173 -64.0352 9.95492 
8.17498 -64.6143 10.3885 8.59331 -64.4774 9.78787 1.64895 -64.2994 10.3493 
1.95475 -63.9599 9.91969 2.32785 -64.421 9.96859 1.11845 -64.6178 10.7659 
11.8341 -64.1959 8.75481 12.1075 -64.579 9.31297 12.6228 -64.4416 8.82032 
10.8366 -64.1771 8.98508 11.2693 -64.5358 9.45288 9.90775 -64.0181 8.86254 
10.2626 -64.5339 9.44098 8.89776 -64.0258 9.19803 9.31784 -64.5313 9.49857 
4.01576 -63.9142 8.81592 4.56855 -64.4847 8.81452 4.04958 -64.6474 9.27314 
3.12733 -64.5655 9.60397 15.8558 -64.1858 7.74144 16.123 -64.5592 8.35815 
16.6466 -64.4061 7.87871 14.7806 -64.158 7.82187 15.2838 -64.5105 8.4694 
13.7762 -64.1637 7.83489 14.2896 -64.5139 8.46117 12.8154 -64.162 8.14183 
13.3648 -64.5077 8.55146 12.0135 -63.8846 7.88573 10.9434 -63.8333 8.32787 
4.80264 -64.1229 8.22816 5.42746 -64.398 7.92759 5.1441 -64.6219 8.40792 
17.712 -64.3279 6.8951 18.1761 -64.6165 7.3013 18.3063 -64.6483 6.80747 
16.7626 -64.1458 7.03824 17.4242 -64.4891 7.58223 15.8661 -64.039 6.79549 
15.0015 -64.0263 6.96031 14.142 -64.0194 7.1436 13.0526 -63.8727 7.18317 
7.04302 -63.9317 6.80535 7.5848 -64.4336 6.8093 6.95923 -64.4677 7.33252 
6.08859 -64.4214 7.67419 3.96201 -64.3655 7.26896 4.19799 -64.4603 7.11928 
3.97087 -64.278 7.00933 3.74252 -64.6695 7.23129 23.9156 -64.0255 6.05355 
23.9944 -64.4529 6.41472 24.5041 -64.4907 5.68952 23.1885 -64.5057 6.7065 
22.0916 -64.2671 6.52046 21.1766 -64.0695 6.06853 21.4081 -64.5983 6.10688 
17.8413 -64.4899 6.36004 17.5954 -64.3743 5.87383 16.99 -64.0444 5.96574 
16.1624 -64.017 6.13261 15.1217 -63.9061 5.9602 13.976 -63.8371 6.32654 
7.81451 -64.1076 6.22489 8.38032 -64.7314 6.19565 7.99739 -64.5328 6.49943 
5.04393 -64.3776 5.96379 5.13798 -64.5164 6.21909 5.27295 -64.4301 5.96479 
4.01354 -64.693 6.81426 4.75733 -64.7436 5.97055 24.0732 -63.9869 5.26485 
24.5928 -64.511 4.71277 20.7356 -64.2768 5.70525 20.1695 -64.5317 5.55992 
19.248 -64.4236 5.53605 18.1564 -64.2896 5.61003 15.8838 -63.7661 5.2729 
9.85631 -63.9574 5.01227 10.3932 -64.4907 5.068 9.74284 -64.5104 5.46723 
8.89753 -64.5225 5.57765 7.13679 -64.5052 5.32367 7.44736 -64.572 4.8972 
6.83547 -64.2376 5.03399 6.24557 -64.2593 4.87086 6.34964 -64.4065 5.39182 
5.03553 -64.6511 5.60316 5.73065 -64.4866 5.0635 23.9682 -63.9654 4.17803 
24.5482 -64.6608 3.93006 21.0424 -63.6913 3.56284 20.004 -63.8555 3.84031 
19.0415 -63.8433 3.87666 18.2704 -63.7041 3.96881 14.1204 -63.8028 3.82056 
13.3816 -64.0743 3.90188 12.6542 -64.474 4.13779 11.953 -64.2503 4.33974 
11.9964 -63.7366 3.99599 11.1204 -64.4266 4.63966 6.80901 -64.6821 4.5943 
5.80953 -64.732 4.60461 23.9532 -64.4637 3.39829 23.1709 -64.1206 2.99142 
23.5051 -64.8102 2.89065 22.1024 -63.8429 2.98078 19.9469 -64.0051 3.01386 
19.172 -64.0107 3.14717 18.1292 -64.1386 3.02692 17.0137 -64.5571 3.31789 
17.5294 -64.6138 2.94295 16.0114 -64.4701 3.37239 15.1923 -64.3325 3.35286 
14.1962 -64.5617 3.56649 13.2692 -64.6201 3.77897 22.7219 -64.6211 2.60896 
21.7462 -64.522 2.32677 21.1959 -64.2502 1.98291 21.2565 -64.6958 1.94676 
20.743 -64.2204 2.11862 20.1447 -64.5498 2.28555 19.4447 -64.8864 1.85466 
19.0905 -64.2597 2.25209 18.4668 -64.5217 2.02541 17.9618 -64.8453 2.45566 
21.0184 -64.4978 1.79597 18.9188 -64.7285 1.64517 7.92017 -65.2185 11.8702 
8.07842 -65.8329 12.3335 8.5954 -65.4546 11.8225 6.89058 -65.0054 11.9011 
7.02476 -65.6408 12.3586 5.75374 -65.0289 12.0035 6.03089 -65.6537 12.3591 
4.75431 -65.0467 12.0093 5.01612 -65.7039 12.3531 3.92445 -64.8789 12.0916 
3.87091 -65.5994 12.4089 2.9408 -65.6189 12.561 2.16569 -65.3946 12.413 
1.62281 -65.3008 11.8456 8.87748 -65.1919 11.0395 9.18234 -65.574 11.3929 
9.60692 -65.4723 10.7911 7.95365 -64.8664 11.1304 1.77402 -64.9831 10.8889 
2.3191 -65.748 11.1235 1.92748 -65.5755 11.5257 1.0124 -64.7589 11.0018 
12.9327 -65.2268 9.84818 13.11 -65.5913 10.3082 13.6117 -65.4523 9.80322 
11.9086 -65.0152 9.87722 12.2782 -65.5336 10.4572 10.7681 -65.0244 9.95218 
11.2622 -65.5295 10.4637 9.72752 -65.0451 10.1054 10.321 -65.5322 10.5175 
8.80123 -64.8508 10.2302 2.79908 -65.0681 10.1911 3.4861 -65.3244 9.84221 
2.97686 -65.8248 10.3693 17.8574 -65.1726 8.78584 17.9532 -65.5013 9.36692 
18.5406 -65.5072 9.01462 16.8621 -65.1712 9.01409 17.2824 -65.5203 9.48109 
15.904 -65.0052 8.88957 16.2659 -65.5231 9.47269 14.7801 -65.0117 8.9673 
15.259 -65.5259 9.43903 13.7523 -65.0193 9.14485 14.3309 -65.5082 9.53453 
12.8174 -64.8116 9.25348 6.86036 -65.2153 8.75867 7.55642 -65.4958 8.99586 
[...]
CELL_DATA 13448
SCALARS scalars float
LOOKUP_TABLE default
2021 2021 2021 2021 2021 2021 2021 2021 2021 
2021 2021 2021 2021 2021 2021 2021 2021 2021 
2021 2021 2021 2021 2021 2021 2021 2021 2021 
2021 2021 2021 2021 2021 2021 2021 2021 2021 
2021 2021 2021 2021 2021 2021 2021 2021 2021 
2021 2021 2021 2021 2021 2021 2021 2021 2021 
2021 2021 2021 2021 2021 2021 2021 2021 2021 
2021 2021 2021 2021 2021 2021 2021 2021 2021 
2021 2021 2021 2021 2021 2021 2021 2021 2021 
2021 2021 2021 2021 2021 2021 2021 2021 2021 
2021 2021 2021 2021 2021 2021 2021 2021 2021 
2021 2021 2021 2021 2021 2021 2021 2021 2021 
2021 2021 2021 2021 2021 2021 2021 2021 2021 
2021 2021 2021 2021 2021 2021 2021 2021 2021 
2021 2021 2021 2021 2021 2021 2021 2021 2021 
2021 2021 2021 2021 2021 2021 2021 2021 2021 
2021 2021 2021 2021 2021 2021 2021 2021 2021 
2021 2021 2021 2021 2021 2021 2021 2021 2021 
2021 2021 2021 2021 2021 2021 2021 2021 2021 
2021 2021 2021 2021 2021 2021 2021 2021 2021 
2021 2021 2021 2021 2021 2021 2021 2021 2021 
2021 2021 2021 2021 2021 2021 2021 2021 2021 
2021 2021 2021 2021 2021 2021 2021 2021 2021 
2021 2021 2021 2021 2021 2021 2021 2021 2021 
2021 2021 2021 2021 2021 2021 2021 2021 2021 
2021 2021 2021 2021 2021 2021 2021 2021 2021 
2021 2021 2021 2021 2021 2021 2021 2021 2021 
2021 2021 2021 2021 2021 2021 2021 2021 2021 
2021 2021 2021 2021 2021 2021 2021 2021 2021 
2021 2021 2021 2021 2021 2021 2021 2021 2021 
2021 2021 2021 2021 2021 2021 2021 2021 2021 
2021 2021 2021 2021 2021 2021 2021 2021 2021 
2021 2021 2021 2021 2021 2021 2021 2021 2021 
2021 2021 2021 2021 2021 2021 2021 2021 2021 
2021 2021 2021 2021 2021 2021 2021 2021 2021 
2021 2021 2021 2021 2021 2021 2021 2021 2021 
2021 2021 2021 2021 2021 2021 2021 2021 2021 
2021 2021 2021 2021 2021 2021 2021 2021 2021 
2021 2021 2021 2021 2021 2021 2021 2021 2021 
2021 2021 2021 2021 2021 2021 2021 2021 2021 
2021 2021 2021 2021 2021 2021 2021 2021 2021 
2021 2021 2021 2021 2021 2021 2021 2021 2021 
2021 2021 2021 2021 2021 2021 2021 2021 2021 
2021 2021 2021 2021 2021 2021 2021 2021 2021 
2021 2021 2021 2021 2021 2021 2021 2021 2021 
2021 2021 2021 2021 2021 2021 2021 2021 2021 
2021 2021 2021 2021 2021 2021 2021 2021 2021 
2021 2021 2021 2021 2021 2021 2021 2021 2021 
2021 2021 2021 2021 2021 2021 2021 2021 2021 
2021 2021 2021 2021 2021 2021 2021 2021 2021 
2021 2021 2021 2021 2021 2021 2021 2021 2021 
2021 2021 2021 2021 2021 2021 2021 2021 2021 
2021 2021 2021 2021 2021 2021 2021 2021 2021 
2021 2021 2021 2021 2021 2021 2021 2021 2021 
2021 2021 2021 2021 2021 2021 2021 2021 2021 
2021 2021 2021 2021 2021 2021 2021 2021 2021 
2021 2021 2021 2021 2021 2021 2021 2021 2021 
2021 2021 2021 2021 2021 2021 2021 2021 2021 
2021 2021 2021 2021 2021 2021 2021 2021 2021 
2021 2021 2021 2021 2021 2021 2021 2021 2021 
2021 2021 2021 2021 2021 2021 2021 2021 2021 
2021 2021 2021 2021 2021 2021 2021 2021 2021 
2021 2021 2021 2021 2021 2021 2021 2021 2021 
2021 2021 2021 2021 2021 2021 2021 2021 2021 
2021 2021 2021 2021 2021 2021 2021 2021 2021 
2021 2021 2021 2021 2021 2021 2021 2021 2021 
2021 2021 2021 2021 2021 2021 2021 2021 2021 
2021 2021 2021 2021 2021 2021 2021 2021 2021 
2021 2021 2021 2021 2021 2021 2021 2021 2021 
2021 2021 2021 2021 2021 2021 2021 2021 2021 
2021 2021 2021 2021 2021 2021 2021 2021 2021 
2021 2021 2021 2021 2021 2021 2021 2021 2021 
2021 2021 2021 2021 2021 2021 2021 2021 2021 
2021 2021 2021 2021 2021 2021 2021 2021 2021 
2021 2021 2021 2021 2021 2021 2021 2021 2021 
2021 2021 2021 2021 2021 2021 2021 2021 2021 
2021 2021 2021 2021 2021 2021 2021 2021 2021 
2021 2021 2021 2021 2021 2021 2021 2021 2021 
2021 2021 2021 2021 2021 2021 2021 2021 2021 
2021 2021 2021 2021 2021 2021 2021 2021 2021 
2021 2021 2021 2021 2021 2021 2021 2021 2021 
2021 2021 2021 2021 2021 2021 2021 2021 2021 
2021 2021 2021 2021 2021 2021 2021 2021 2021 
2021 2021 2021 2021 2021 2021 2021 2021 2021 
2021 2021 2021 2021 2021 2021 2021 2021 2021 
2021 2021 2021 2021 2021 2021 2021 2021 2021 
2021 2021 2021 2021 2021 2021 2021 2021 2021 
2021 2021 2021 2021 2021 2021 2021 2021 2021 
2021 2021 2021 2021 2021 2021 2021 2021 2021 
2021 2021 2021 2021 2021 2021 2021 2021 2021 
2021 2021 2021 2021 2021 2021 2021 2021 2021 
2021 2021 2021 2021 2021 2021 2021 2021 2021 
2021 2021 2021 2021 2021 2021 2021 2021 2021 
2021 2021 2021 2021 2021 2021 2021 2021 2021 
2021 2021 2021 2021 2021 2021 2021 2021 2021 
2021 2021 2021 2021 2021 2021 2021 2021 2021 
2021 2021 2021 2021 2021 2021 2021 2021 2021 
2021 2021 2021 2021 2021 2021 2021 2021 2021 
2021 2021 2021 2021 2021 2021 2021 2021 2021 
2021 2021 2021 2021 2021 2021 2021 2021 2021 
2021 2021 2021 2021 2021 2021 2021 2021 2021 
2021 2021 2021 2021 2021 2021 2021 2021 2021 
2021 2021 2021 2021 2021 2021 2021 2021 2021 
2021 2021 2021 2021 2021 2021 2021 2021 2021 
2021 2021 2021 2021 2021 2021 2021 2021 2021 
2021 2021 2021 2021 2021 2021 2021 2021 2021 
2021 2021 2021 2021 2021 2021 2021 2021 2021 
2021 2021 2021 2021 2021 2021 2021 2021 2021 
2021 2021 2021 2021 2021 2021 2021 2021 2021 
2021 2021 2021 2021 2021 2021 2021 2021 2021 
2021 2021 2021 2021 2021 2021 2021 2021 2021 
2021 2021 2021 2021 2021 2021 2021 2021 2021 
2021 2021 2021 2021 2021 2021 2021 2021 2021 
2021 2021 2021 2021 2021 2021 2021 2021 2021 
2021 2021 2021 2021 2021 2021 2021 2021 2021 
2021 2021 2021 2021 2021 2021 2021 2021 2021 
2021 2021 2021 2021 2021 2021 2021 2021 2021 
2021 2021 2021 2021 2021 2021 2021 2021 2021 
2021 2021 2021 2021 2021 2021 2021 2021 2021 
2021 2021 2021 2021 2021 2021 2021 2021 2021 
2021 2021 2021 2021 2021 2021 2021 2021 2021 
2021 2021 2021 2021 2021 2021 2021 2021 2021 
2021 2021 2021 2021 2021 2021 2021 2021 2021 
2021 2021 2021 2021 2021 2021 2021 2021 2021 
2021 2021 2021 2021 2021 2021 2021 2021 2021 
2021 2021 2021 2021 2021 2021 2021 2021 2021 
2021 2021 2021 2021 2021 2021 2021 2021 2021 
2021 2021 2021 2021 2021 2021 2021 2021 2021 
2021 2021 2021 2021 2021 2021 2021 2021 2021 
2021 2021 2021 2021 2021 2021 2021 2021 2021 
2021 2021 2021 2021 2021 2021 2021 2021 2021 
2021 2021 2021 2021 2021 2021 2021 2021 2021 
2021 2021 2021 2021 2021 2021 2021 2021 2021 
2021 2021 2021 2021 2021 2021 2021 2021 2021 
2021 2021 2021 2021 2021 2021 2021 2021 2021 
2021 2021 2021 2021 2021 2021 2021 2021 2021 
2021 2021 2021 2021 2021 2021 2021 2021 2021 
2021 2021 2021 2021 2021 2021 2021 2021 2021 
2021 2021 2021 2021 2021 2021 2021 2021 2021 
2021 2021 2021 2021 2021 2021 2021 2021 2021 
2021 2021 2021 2021 2021 2021 2021 2021 2021 
2021 2021 2021 2021 2021 2021 2021 2021 2021 
2021 2021 2021 2021 2021 2021 2021 2021 2021 
2021 2021 2021 2021 2021 2021 2021 2021 2021 
2021 2021 2021 2021 2021 2021 2021 2021 2021 
2021 2021 2021 2021 2021 2021 2021 2021 2021 
2021 2021 2021 2021 2021 2021 2021 2021 2021 
2021 2021 2021 2021 2021 2021 2021 2021 2021 
2021 2021 2021 2021 2021 2021 2021 2021 2021 
2021 2021 2021 2021 2021 2021 2021 2021 2021 
2021 2021 2021 2021 2021 2021 2021 2021 2021 
2021 2021 2021 2021 2021 2021 2021 2021 2021 
2021 2021 2021 2021 2021 2021 2021 2021 2021 
2021 2021 2021 2021 2021 2021 2021 2021 2021 
2021 2021 2021 2021 2021 2021 2021 2021 2021 
2021 2021 2021 2021 2021 2021 2021 2021 2021 
2021 2021 2021 2021 2021 2021 2021 2021 2021 
2021 2021 2021 2021 2021 2021 2021 2021 2021 
2021 2021 2021 2021 2021 2021 2021 2021 2021 
2021 2021 2021 2021 2021 2021 2021 2021 2021 
2021 2021 2021 2021 2021 2021 2021 2021 2021 
2021 2021 2021 2021 2021 2021 2021 2021 2021 
2021 2021 2021 2021 2021 2021 2021 2021 2021 
2021 2021 2021 2021 2021 2021 2021 2021 2021 
2021 2021 2021 2021 2021 2021 2021 2021 2021 
2021 2021 2021 2021 2021 2021 2021 2021 2021 
2021 2021 2021 2021 2021 2021 2021 2021 2021 
2021 2021 2021 2021 2021 2021 2021 2021 2021 
2021 2021 2021 2021 2021 2021 2021 2021 2021 
2021 2021 2021 2021 2021 2021 2021 2021 2021 
2021 2021 2021 2021 2021 2021 2021 2021 2021 
2021 2021 2021 2021 2021 2021 2021 2021 2021 
2021 2021 2021 2021 2021 2021 2021 2021 2021 
2021 2021 2021 2021 2021 2021 2021 2021 2021 
2021 2021 2021 2021 2021 2021 2021 2021 2021 
2021 2021 2021 2021 2021 2021 2021 2021 2021 
2021 2021 2021 2021 2021 2021 2021 2021 2021 
2021 2021 2021 2021 2021 2021 2021 2021 2021 
2021 2021 2021 2021 2021 2021 2021 2021 2021 
2021 2021 2021 2021 2021 2021 2021 2021 2021 
2021 2021 2021 2021 2021 2021 2021 2021 2021 
2021 2021 2021 2021 2021 2021 2021 2021 2021 
2021 2021 2021 2021 2021 2021 2021 2021 2021 
2021 2021 2021 2021 2021 2021 2021 2021 2021 
2021 2021 2021 2021 2021 2021 2021 2021 2021 
2021 2021 2021 2021 2021 2021 2021 2021 2021 
2021 2021 2021 2021 2021 2021 2021 2021 2021 
2021 2021 2021 2021 2021 2021 2021 2021 2021 
2021 2021 2021 2021 2021 2021 2021 2021 2021 
2021 2021 2021 2021 2021 2021 2021 2021 2021 
2021 2021 2021 2021 2021 2021 2021 2021 2021 
2021 2021 2021 2021 2021 2021 2021 2021 2021 
2021 2021 2021 2021 2021 2021 2021 2021 2021 
2021 2021 2021 2021 2021 2021 2021 2021 2021 
2021 2021 2021 2021 2021 2021 2021 2021 2021 
2021 2021 2021 2021 2021 2021 2021 2021 2021 
2021 2021 2021 2021 2021 2021 2021 2021 2021 
2021 2021 2021 2021 2021 2021 2021 2021 2021 
2021 2021 2021 2021 2021 2021 2021 2021 2021 
2021 2021 2021 2021 2021 2021 2021 2021 2021 
2021 2021 2021 2021 2021 2021 2021 2021 2021 
2021 2021 2021 2021 2021 2021 2021 2021 2021 
2021 2021 2021 2021 2021 2021 2021 2021 2021 
2021 2021 2021 2021 2021 2021 2021 2021 2021 
2021 2021 2021 2021 2021 2021 2021 2021 2021 
2021 2021 2021 2021 2021 2021 2021 2021 2021 
2021 2021 2021 2021 2021 2021 2021 2021 2021 
2021 2021 2021 2021 2021 2021 2021 2021 2021 
2021 2021 2021 2021 2021 2021 2021 2021 2021 
2021 2021 2021 2021 2021 2021 2021 2021 2021 
2021 2021 2021 2021 2021 2021 2021 2021 2021 
2021 2021 2021 2021 2021 2021 2021 2021 2021 
2021 2021 2021 2021 2021 2021 2021 2021 2021 
2021 2021 2021 2021 2021 2021 2021 2021 2021 
2021 2021 2021 2021 2021 2021 2021 2021 2021 
2021 2021 2021 2021 2021 2021 2021 2021 2021 
2021 2021 2021 2021 2021 2021 2021 2021 2021 
2021 2021 2021 2021 2021 2021 2021 2021 2021 
2021 2021 2021 2021 2021 2021 2021 2021 2021 
2021 2021 2021 2021 2021 2021 2021 2021 2021 
2021 2021 2021 2021 2021 2021 2021 2021 2021 
2021 2021 2021 2021 2021 2021 2021 2021 2021 
2021 2021 2021 2021 2021 2021 2021 2021 2021 
2021 2021 2021 2021 2021 2021 2021 2021 2021 
2021 2021 2021 2021 2021 2021 2021 2021 2021 
2021 2021 2021 2021 2021 2021 2021 2021 2021 
2021 2021 2021 2021 2021 2021 2021 2021 2021 
2021 2021 2021 2021 2021 2021 2021 2021 2021 
2021 2021 2021 2021 2021 2021 2021 2021 2021 
2021 2021 2021 2021 2021 2021 2021 2021 2021 
2021 2021 2021 2021 2021 2021 2021 2021 2021 
2021 2021 2021 2021 2021 2021 2021 2021 2021 
2021 2021 2021 2021 2021 2021 2021 2021 2021 
2021 2021 2021 2021 2021 2021 2021 2021 2021 
2021 2021 2021 2021 2021 2021 2021 2021 2021 
2021 2021 2021 2021 2021 2021 2021 2021 2021 
2021 2021 2021 2021 2021 2021 2021 2021 2021 
2021 2021 2021 2021 2021 2021 2021 2021 2021 
2021 2021 2021 2021 2021 2021 2021 2021 2021 
2021 2021 2021 2021 2021 2021 2021 2021 2021 
2021 2021 2021 2021 2021 2021 2021 2021 2021 
2021 2021 2021 2021 2021 2021 2021 2021 2021 
2021 2021 2021 2021 2021 2021 2021 2021 2021 
2021 2021 2021 2021 2021 2021 2021 2021 2021 
2021 2021 2021 2021 2021 2021 2021 2021 2021 
2021 2021 2021 2021 2021 2021 2021 2021 2021 
2021 2021 2021 2021 2021 2021 2021 2021 2021 
2021 2021 2021 2021 2021 2021 2021 2021 2021 
2021 2021 2021 2021 2021 2021 2021 2021 2021 
2021 2021 2021 2021 2021 2021 2021 2021 2021 
2021 2021 2021 2021 2021 2021 2021 2021 2021 
2021 2021 2021 2021 2021 2021 2021 2021 2021 
2021 2021 2021 2021 2021 2021 2021 2021 2021 
2021 2021 2021 2021 2021 2021 2021 2021 2021 
2021 2021 2021 2021 2021 2021 2021 2021 2021 
2021 2021 2021 2021 2021 2021 2021 2021 2021 
2021 2021 2021 2021 2021 2021 2021 2021 2021 
2021 2021 2021 2021 2021 2021 2021 2021 2021 
2021 2021 2021 2021 2021 2021 2021 2021 2021 
2021 2021 2021 2021 2021 2021 2021 2021 2021 
2021 2021 2021 2021 2021 2021 2021 2021 2021 
2021 2021 2021 2021 2021 2021 2021 2021 2021 
2021 2021 2021 2021 2021 2021 2021 2021 2021 
2021 2021 2021 2021 2021 2021 2021 2021 2021 
2021 2021 2021 2021 2021 2021 2021 2021 2021 
2021 2021 2021 2021 2021 2021 2021 2021 2021 
2021 2021 2021 2021 2021 2021 2021 2021 2021 
2021 2021 2021 2021 2021 2021 2021 2021 2021 
2021 2021 2021 2021 2021 2021 2021 2021 2021 
2021 2021 2021 2021 2021 2021 2021 2021 2021 
2021 2021 2021 2021 2021 2021 2021 2021 2021 
2021 2021 2021 2021 2021 2021 2021 2021 2021 
2021 2021 2021 2021 2021 2021 2021 2021 2021 
2021 2021 2021 2021 2021 2021 2021 2021 2021 
2021 2021 2021 2021 2021 2021 2021 2021 2021 
2021 2021 2021 2021 2021 2021 2021 2021 2021 
2021 2021 2021 2021 2021 2021 2021 2021 2021 
2021 2021 2021 2021 2021 2021 2021 2021 2021 
2021 2021 2021 2021 2021 2021 2021 2021 2021 
2021 2021 2021 2021 2021 2021 2021 2021 2021 
2021 2021 2021 2021 2021 2021 2021 2021 2021 
2021 2021 2021 2021 2021 2021 2021 2021 2021 
2021 2021 2021 2021 2021 2021 2021 2021 2021 
2021 2021 2021 2021 2021 2021 2021 2021 2021 
2021 2021 2021 2021 2021 2021 2021 2021 2021 
2021 2021 2021 2021 2021 2021 2021 2021 2021 
2021 2021 2021 2021 2021 2021 2021 2021 2021 
2021 2021 2021 2021 2021 2021 2021 2021 2021 
2021 2021 2021 2021 2021 2021 2021 2021 2021 
2021 2021 2021 2021 2021 2021 2021 2021 2021 
2021 2021 2021 2021 2021 2021 2021 2021 2021 
2021 2021 2021 2021 2021 2021 2021 2021 2021 
2021 2021 2021 2021 2021 2021 2021 2021 2021 
2021 2021 2021 2021 2021 2021 2021 2021 2021 
2021 2021 2021 2021 2021 2021 2021 2021 2021 
2021 2021 2021 2021 2021 2021 2021 2021 2021 
2021 2021 2021 2021 2021 2021 2021 2021 2021 
2021 2021 2021 2021 2021 2021 2021 2021 2021 
2021 2021 2021 2021 2021 2021 2021 2021 2021 
2021 2021 2021 2021 2021 2021 2021 2021 2021 
2021 2021 2021 2021 2021 2021 2021 2021 2021 
2021 2021 2021 2021 2021 2021 2021 2021 2021 
2021 2021 2021 2021 2021 2021 2021 2021 2021 
2021 2021 2021 2021 2021 2021 2021 2021 2021 
2021 2021 2021 2021 2021 2021 2021 2021 2021 
2021 2021 2021 2021 2021 2021 2021 2021 2021 
2021 2021 2021 2021 2021 2021 2021 2021 2021 
2021 2021 2021 2021 2021 2021 2021 2021 2021 
2021 2021 2021 2021 2021 2021 2021 2021 2021 
2021 2021 2021 2021 2021 2021 2021 2021 2021 
2021 2021 2021 2021 2021 2021 2021 2021 2021 
2021 2021 2021 2021 2021 2021 2021 2021 2021 
2021 2021 2021 2021 2021 2021 2021 2021 2021 
2021 2021 2021 2021 2021 2021 2021 2021 2021 
2021 2021 2021 2021 2021 2021 2021 2021 2021 
2021 2021 2021 2021 2021 2021 2021 2021 2021 
2021 2021 2021 2021 2021 2021 2021 2021 2021 
2021 2021 2021 2021 2021 2021 2021 2021 2021 
2021 2021 2021 2021 2021 2021 2021 2021 2021 
2021 2021 2021 2021 2021 2021 2021 2021 2021 
2021 2021 2021 2021 2021 2021 2021 2021 2021 
2021 2021 2021 2021 2021 2021 2021 2021 2021 
2021 2021 2021 2021 2021 2021 2021 2021 2021 
2021 2021 2021 2021 2021 2021 2021 2021 2021 
2021 2021 2021 2021 2021 2021 2021 2021 2021 
2021 2021 2021 2021 2021 2021 2021 2021 2021 
2021 2021 2021 2021 2021 2021 2021 2021 2021 
2021 2021 2021 2021 2021 2021 2021 2021 2021 
2021 2021 2021 2021 2021 2021 2021 2021 2021 
2021 2021 2021 2021 2021 2021 2021 2021 2021 
2021 2021 2021 2021 2021 2021 2021 2021 2021 
2021 2021 2021 2021 2021 2021 2021 2021 2021 
2021 2021 2021 2021 2021 2021 2021 2021 2021 
2021 2021 2021 2021 2021 2021 2021 2021 2021 
2021 2021 2021 2021 2021 2021 2021 2021 2021 
2021 2021 2021 2021 2021 2021 2021 2021 2021 
2021 2021 2021 2021 2021 2021 2021 2021 2021 
2021 2021 2021 2021 2021 2021 2021 2021 2021 
2021 2021 2021 2021 2021 2021 2021 2021 2021 
2021 2021 2021 2021 2021 2021 2021 2021 2021 
2021 2021 2021 2021 2021 2021 2021 2021 2021 
2021 2021 2021 2021 2021 2021 2021 2021 2021 
2021 2021 2021 2021 2021 2021 2021 2021 2021 
2021 2021 2021 2021 2021 2021 2021 2021 2021 
2021 2021 2021 2021 2021 2021 2021 2021 2021 
2021 2021 2021 2021 2021 2021 2021 2021 2021 
2021 2021 2021 2021 2021 2021 2021 2021 2021 
2021 2021 2021 2021 2021 2021 2021 2021 2021 
2021 2021 2021 2021 2021 2021 2021 2021 2021 
2021 2021 2021 2021 2021 2021 2021 2021 2021 
2021 2021 2021 2021 2021 2021 2021 2021 2021 
2021 2021 2021 2021 2021 2021 2021 2021 2021 
2021 2021 2021 2021 2021 2021 2021 2021 2021 
2021 2021 2021 2021 2021 2021 2021 2021 2021 
2021 2021 2021 2021 2021 2021 2021 2021 2021 
2021 2021 2021 2021 2021 2021 2021 2021 2021 
2021 2021 2021 2021 2021 2021 2021 2021 2021 
2021 2021 2021 2021 2021 2021 2021 2021 2021 
2021 2021 2021 2021 2021 2021 2021 2021 2021 
2021 2021 2021 2021 2021 2021 2021 2021 2021 
2021 2021 2021 2021 2021 2021 2021 2021 2021 
2021 2021 2021 2021 2021 2021 2021 2021 2021 
2021 2021 2021 2021 2021 2021 2021 2021 2021 
2021 2021 2021 2021 2021 2021 2021 2021 2021 
2021 2021 2021 2021 2021 2021 2021 2021 2021 
2021 2021 2021 2021 2021 2021 2021 2021 2021 
2021 2021 2021 2021 2021 2021 2021 2021 2021 
2021 2021 2021 2021 2021 2021 2021 2021 2021 
2021 2021 2021 2021 2021 2021 2021 2021 2021 
2021 2021 2021 2021 2021 2021 2021 2021 2021 
2021 2021 2021 2021 2021 2021 2021 2021 2021 
2021 2021 2021 2021 2021 2021 2021 2021 2021 
2021 2021 2021 2021 2021 2021 2021 2021 2021 
2021 2021 2021 2021 2021 2021 2021 2021 2021 
2021 2021 2021 2021 2021 2021 2021 2021 2021 
2021 2021 2021 2021 2021 2021 2021 2021 2021 
2021 2021 2021 2021 2021 2021 2021 2021 2021 
2021 2021 2021 2021 2021 2021 2021 2021 2021 
2021 2021 2021 2021 2021 2021 2021 2021 2021 
2021 2021 2021 2021 2021 2021 2021 2021 2021 
2021 2021 2021 2021 2021 2021 2021 2021 2021 
2021 2021 2021 2021 2021 2021 2021 2021 2021 
2021 2021 2021 2021 2021 2021 2021 2021 2021 
2021 2021 2021 2021 2021 2021 2021 2021 2021 
2021 2021 2021 2021 2021 2021 2021 2021 2021 
2021 2021 2021 2021 2021 2021 2021 2021 2021 
2021 2021 2021 2021 2021 2021 2021 2021 2021 
2021 2021 2021 2021 2021 2021 2021 2021 2021 
2021 2021 2021 2021 2021 2021 2021 2021 2021 
2021 2021 2021 2021 2021 2021 2021 2021 2021 
2021 2021 2021 2021 2021 2021 2021 2021 2021 
2021 2021 2021 2021 2021 2021 2021 2021 2021 
2021 2021 2021 2021 2021 2021 2021 2021 2021 
2021 2021 2021 2021 2021 2021 2021 2021 2021 
2021 2021 2021 2021 2021 2021 2021 2021 2021 
2021 2021 2021 2021 2021 2021 2021 2021 2021 
2021 2021 2021 2021 2021 2021 2021 2021 2021 
2021 2021 2021 2021 2021 2021 2021 2021 2021 
2021 2021 2021 2021 2021 2021 2021 2021 2021 
2021 2021 2021 2021 2021 2021 2021 2021 2021 
2021 2021 2021 2021 2021 2021 2021 2021 2021 
2021 2021 2021 2021 2021 2021 2021 2021 2021 
2021 2021 2021 2021 2021 2021 2021 2021 2021 
2021 2021 2021 2021 2021 2021 2021 2021 2021 
2021 2021 2021 2021 2021 2021 2021 2021 2021 
2021 2021 2021 2021 2021 2021 2021 2021 2021 
2021 2021 2021 2021 2021 2021 2021 2021 2021 
2021 2021 2021 2021 2021 2021 2021 2021 2021 
2021 2021 2021 2021 2021 2021 2021 2021 2021 
2021 2021 2021 2021 2021 2021 2021 2021 2021 
2021 2021 2021 2021 2021 2021 2021 2021 2021 
2021 2021 2021 2021 2021 2021 2021 2021 2021 
2021 2021 2021 2021 2021 2021 2021 2021 2021 
2021 2021 2021 2021 2021 2021 2021 2021 2021 
2021 2021 2021 2021 2021 2021 2021 2021 2021 
2021 2021 2021 2021 2021 2021 2021 2021 2021 
2021 2021 2021 2021 2021 2021 2021 2021 2021 
2021 2021 2021 2021 2021 2021 2021 2021 2021 
2021 2021 2021 2021 2021 2021 2021 2021 2021 
2021 2021 2021 2021 2021 2021 2021 2021 2021 
2021 2021 2021 2021 2021 2021 2021 2021 2021 
2021 2021 2021 2021 2021 2021 2021 2021 2021 
2021 2021 2021 2021 2021 2021 2021 2021 2021 
2021 2021 2021 2021 2021 2021 2021 2021 2021 
2021 2021 2021 2021 2021 2021 2021 2021 2021 
2021 2021 2021 2021 2021 2021 2021 2021 2021 
2021 2021 2021 2021 2021 2021 2021 2021 2021 
2021 2021 2021 2021 2021 2021 2021 2021 2021 
2021 2021 2021 2021 2021 2021 2021 2021 2021 
2021 2021 2021 2021 2021 2021 2021 2021 2021 
2021 2021 2021 2021 2021 2021 2021 2021 2021 
2021 2021 2021 2021 2021 2021 2021 2021 2021 
2021 2021 2021 2021 2021 2021 2021 2021 2021 