# vtk DataFile Version 4.0
vtk output
ASCII
DATASET POLYDATA
POINTS 12762 float
-13.9497 -41.2991 -6.01651 -13.9753 -41.3797 -5.74901 -13.6068 -41.617 -5.98654 
-14.2006 -41.4608 -5.87889 -16.0429 -41.3698 -6.07652 -16.029 -41.5181 -5.86722 
-15.5838 -41.6988 -5.95466 -16.187 -41.6553 -5.99907 -14.0484 -41.7502 -6.30233 
-15.9788 -41.8031 -6.31323 -24.0528 -42.2949 -4.02695 -23.86 -42.7236 -3.73335 
-23.6631 -42.5871 -4.22799 -24.4326 -42.5422 -3.96406 -10.1572 -42.2492 -4.93875 
-10.0312 -42.7664 -4.63897 -9.64418 -42.7037 -5.24309 -10.7193 -42.2369 -5.07963 
-10.8546 -42.5448 -4.66987 -11.3677 -42.6011 -4.93806 -14.0905 -41.9348 -5.34819 
-13.9247 -42.566 -4.62668 -13.3707 -42.3858 -5.15091 -15.1185 -42.1252 -5.26942 
-14.8841 -42.7375 -4.46501 -15.5957 -42.66 -4.90424 -17.028 -42.4088 -5.0283 
-16.7533 -42.7341 -4.79028 -16.7797 -42.4749 -5.03759 -17.2325 -42.8605 -5.08405 
-24.3388 -42.6606 -4.29094 -10.2298 -42.4372 -5.45586 -11.0149 -42.5148 -5.35815 
-12.0556 -42.4977 -5.6756 -11.5587 -42.5414 -6.25834 -12.1694 -42.2524 -6.04232 
-12.8793 -42.121 -6.03904 -12.6245 -42.4706 -5.43196 -14.7101 -41.7777 -5.90815 
-15.9162 -42.1108 -5.55578 -16.3268 -42.3141 -6.02694 -17.0121 -42.6687 -5.4094 
-11.9919 -42.2665 -6.75873 -11.5855 -42.5316 -7.17151 -12.4094 -42.6229 -7.08788 
-13.1657 -42.5181 -6.53934 -14.0942 -42.6039 -6.56801 -15.1583 -42.3081 -6.49029 
-16.253 -42.6887 -6.51453 -11.9194 -42.4596 -7.38846 -13.079 -43.1835 -4.09987 
-13.2549 -43.7714 -3.77092 -12.5997 -43.5584 -4.19071 -14.0902 -43.0136 -4.03978 
-13.9733 -43.6384 -3.594 -14.8744 -43.1294 -3.94357 -14.8789 -43.6319 -3.63209 
-15.4662 -43.5362 -3.93446 -17.9757 -43.3117 -3.94807 -17.7708 -43.7065 -3.80642 
-17.729 -43.4263 -3.98626 -18.1948 -43.6983 -3.94709 -22.1419 -43.0796 -4.21421 
-22.1315 -43.8063 -3.6763 -21.4382 -43.4501 -4.11002 -23.0783 -42.7981 -4.02066 
-22.9864 -43.3219 -3.60015 -23.7952 -43.6453 -3.34661 -24.8766 -42.9766 -4.12636 
-24.6678 -43.2601 -3.59631 -25.2745 -43.4963 -3.92876 -10.0548 -43.7375 -4.53157 
-9.51877 -43.3369 -4.94029 -10.7673 -43.2822 -4.42638 -11.9991 -42.8487 -5.08669 
-11.7672 -43.5542 -4.42505 -13.164 -42.7763 -4.68856 -16.3741 -42.7001 -5.23588 
-15.9938 -43.1836 -4.4628 -16.8665 -43.3781 -4.51399 -17.3886 -43.567 -4.9586 
-17.9795 -43.7043 -4.16572 -20.0345 -43.1352 -5.09651 -20.2132 -43.7146 -4.73107 
-19.5687 -43.6111 -5.25157 -21.0304 -43.1145 -5.0755 -20.7874 -43.5675 -4.43965 
-21.9455 -42.9304 -4.99315 -22.8731 -43.0618 -4.96176 -23.9617 -43.5008 -4.64323 
-23.4186 -43.5816 -5.07088 -25.0702 -43.5579 -4.38645 -9.99037 -42.8895 -6.10673 
-9.47211 -43.4959 -5.89876 -10.8445 -42.7369 -5.9251 -16.8075 -42.921 -6.04219 
-17.3657 -43.4588 -5.71869 -19.2876 -43.0711 -5.93821 -19.0309 -43.5651 -5.73051 
-18.7515 -43.3466 -6.23091 -20.2392 -43.0602 -6.06654 -20.7489 -43.6479 -6.20609 
-21.1171 -43.3748 -5.80174 -21.4391 -43.4624 -6.08007 -21.8326 -43.1726 -5.71146 
-22.4971 -43.5047 -5.92174 -23.0412 -43.8106 -5.52244 -10.0263 -43.1938 -6.98046 
-9.59257 -43.8428 -6.90276 -10.894 -42.8449 -6.98095 -12.7187 -43.2496 -6.93818 
-13.1484 -43.7019 -6.71347 -13.9001 -43.5149 -6.54837 -14.9535 -43.4697 -6.60529 
-16.0242 -43.5142 -6.64638 -16.9017 -43.6156 -6.41573 -18.9098 -43.0583 -6.82119 
-18.4211 -43.5939 -7.04558 -19.6506 -43.0388 -7.07467 -20.8551 -43.4046 -6.62757 
-20.6488 -43.2362 -6.98818 -21.7771 -43.8253 -6.30861 -21.0992 -43.4997 -7.02747 
-10.0876 -43.515 -7.59017 -10.4956 -43.8045 -8.2524 -10.9026 -43.1261 -7.98248 
-12.027 -42.867 -7.92785 -12.9269 -43.541 -7.47826 -12.9985 -43.2213 -8.27535 
-13.5162 -43.6551 -8.02192 -18.9737 -43.1992 -7.71869 -18.6029 -43.5158 -8.1222 
-19.5565 -43.5945 -8.13035 -20.2385 -43.5199 -7.50102 -20.8626 -43.6469 -7.21714 
-11.111 -43.407 -8.70216 -11.4087 -43.5833 -9.17656 -11.9123 -43.0989 -9.00998 
-12.859 -43.0585 -9.09447 -13.5443 -43.4461 -8.81636 -19.0314 -43.5735 -8.49699 
-11.9722 -43.5738 -9.62584 -12.5353 -43.7888 -10.1513 -12.7471 -43.1963 -9.86987 
-13.527 -43.5198 -9.86175 -13.1802 -43.6866 -10.3815 -19.0608 -44.3312 -3.02653 
-18.9415 -44.6815 -2.85126 -18.8763 -44.5887 -3.16317 -19.2475 -44.7683 -3.09089 
-24.345 -44.066 -3.01778 -23.9709 -44.7581 -2.76203 -23.6684 -44.4143 -3.07184 
-25.3065 -43.964 -3.21737 -24.8158 -44.7491 -2.51088 -26.2733 -44.0996 -3.20488 
-25.9524 -44.6071 -2.65748 -27.2322 -44.0712 -3.16782 -26.9598 -44.6078 -2.651 
-28.2436 -44.0294 -3.14061 -27.975 -44.5679 -2.60663 -29.2481 -44.1278 -3.28877 
-28.9607 -44.5626 -2.67252 -29.7176 -44.783 -3.1993 -12.1472 -44.2951 -4.05348 
-12.0564 -44.5412 -3.91124 -11.7682 -44.6442 -4.23775 -12.976 -43.9892 -3.99786 
-12.2923 -44.5202 -3.97197 -13.4598 -44.4919 -3.98601 -14.0825 -44.5625 -3.66853 
-14.7722 -44.3381 -3.45485 -16.3472 -43.9457 -3.97091 -15.7774 -44.6068 -3.46767 
-17.3584 -43.8916 -4.23586 -17.1098 -44.5196 -3.6333 -18.1232 -44.4355 -3.75277 
-18.4729 -44.5577 -4.26003 -19.1205 -44.5791 -3.4112 -22.1146 -44.8057 -3.62152 
-21.4577 -44.2115 -3.95225 -22.9701 -44.3958 -3.35895 -25.8118 -43.8931 -3.93759 
-26.705 -44.0921 -3.95101 -27.7233 -44.0831 -3.95047 -28.781 -44.0703 -3.95122 
-29.9549 -44.3642 -3.63953 -29.7415 -44.2355 -4.02399 -30.1841 -44.4769 -4.06714 
-10.2315 -44.5322 -4.69955 -9.57248 -44.3162 -5.18391 -10.9893 -44.3454 -4.51416 
-12.694 -44.5505 -4.17945 -17.9777 -44.489 -4.63139 -17.6132 -44.2435 -5.13545 
-19.966 -43.9632 -4.98372 -20.3066 -44.3874 -4.89791 -20.8469 -44.5814 -4.46634 
-23.4397 -44.1976 -5.06531 -23.7954 -44.7058 -4.67878 -24.7104 -44.5467 -4.43177 
-25.967 -44.4673 -4.37655 -27.2051 -44.6246 -4.49571 -28.2667 -44.6222 -4.5138 
-29.2141 -44.5183 -4.46273 -29.8215 -44.7557 -4.33473 -9.37898 -44.3522 -6.1498 
-17.3629 -44.5516 -5.91593 -18.7055 -43.9638 -6.16773 -19.2001 -44.2089 -5.75184 
-19.7695 -44.6539 -5.38174 -21.117 -43.7491 -6.18202 -22.5075 -44.3069 -5.97807 
-23.0312 -44.3962 -5.48627 -9.38988 -44.5898 -6.78494 -12.9014 -43.8244 -6.99969 
-13.4003 -44.5366 -7.19222 -13.9017 -44.6602 -6.63109 -14.9383 -44.5138 -6.53314 
-15.8205 -44.379 -6.59152 -16.6735 -44.6108 -6.42322 -17.6773 -44.4995 -7.20111 
-17.9258 -44.0864 -7.06874 -18.0996 -44.5199 -6.6481 -18.6796 -44.76 -6.20115 
-20.9413 -43.7542 -6.88084 -20.6898 -44.3054 -7.22979 -21.0152 -44.4949 -6.57242 
-21.6989 -44.717 -6.38238 -9.73022 -44.3861 -7.57773 -10.232 -44.3973 -8.17189 
-14.1552 -44.0345 -8.38134 -13.7517 -44.2562 -7.71853 -14.2495 -44.6466 -8.10048 
-17.9729 -43.9519 -8.00267 -17.4023 -44.6475 -7.89864 -20.2523 -43.9555 -8.08116 
-21.1117 -44.2607 -8.15719 -21.031 -44.6356 -7.59113 -21.371 -44.8095 -7.92447 
-10.915 -43.9004 -8.89816 -10.6495 -44.5433 -8.70897 -14.0334 -43.7729 -9.2274 
-14.888 -44.7322 -8.53837 -14.6758 -44.2303 -9.1614 -15.3944 -44.6463 -8.93464 
-17.3632 -44.1401 -8.96085 -16.8354 -44.8643 -8.5633 -16.5968 -44.4803 -9.34883 
-18.1597 -43.9017 -9.21959 -18.8046 -43.9079 -9.00648 -19.4024 -44.2593 -8.95279 
-20.0527 -44.6029 -8.69683 -20.7393 -44.6707 -9.00003 -20.788 -44.1977 -8.82353 
-21.8048 -44.6596 -8.65807 -21.6911 -44.2845 -9.03977 -22.1693 -44.5175 -9.14633 
-11.2516 -44.1978 -9.30656 -11.8074 -44.4681 -9.77734 -12.288 -44.5562 -10.2035 
-14.1706 -44.0384 -9.85851 -14.6719 -44.5988 -9.99947 -15.1892 -44.6179 -9.44197 
-16.8986 -44.0678 -10.0644 -16.3202 -44.3835 -10.1192 -17.7479 -44.0201 -10.1524 
-18.7094 -44.1467 -9.95719 -19.5072 -44.6539 -9.7529 -21.2931 -44.4461 -9.27333 
-21.8906 -44.5672 -9.31645 -13.0068 -44.6091 -10.5098 -13.9197 -44.4282 -10.4442 
-15.1387 -44.3119 -11.0058 -15.0338 -44.6665 -10.9175 -14.7934 -44.4867 -11.1167 
-16.02 -44.1827 -10.9065 -15.6574 -44.5767 -10.6118 -16.9138 -44.1258 -10.9837 
-17.4196 -44.3459 -10.962 -18.077 -44.7022 -10.6107 -19.2645 -44.7874 -10.3769 
-15.2605 -44.5299 -11.3347 -16.1173 -44.4828 -11.4564 -16.7247 -44.7159 -11.3735 
-25.0695 -45.2215 -2.05662 -25.0206 -45.8079 -1.761 -24.5742 -45.3932 -2.07008 
-25.5234 -45.6452 -1.9054 -16.0797 -45.2661 -3.0703 -15.9678 -45.8727 -2.75529 
-15.5727 -45.5851 -3.18606 -16.5223 -45.6876 -2.91588 -18.8588 -45.5592 -2.77199 
-18.5664 -45.2183 -3.08002 -19.5521 -45.6587 -3.07451 -23.8901 -45.6414 -2.50769 
-23.3721 -45.1676 -3.00385 -25.7233 -45.2145 -2.27917 -26.6892 -45.3337 -2.35831 
-27.8547 -45.4829 -2.36725 -28.9767 -45.4552 -2.44344 -30.039 -45.1965 -2.98712 
-29.9326 -45.3992 -2.63002 -30.5732 -45.7826 -3.11726 -12.1503 -44.7677 -4.06369 
-13.1734 -45.2292 -4.08041 -12.8938 -45.821 -3.74797 -12.5695 -45.3354 -4.10315 
-13.9603 -45.0028 -4.01361 -13.5925 -45.6293 -3.95735 -14.484 -45.5005 -4.06822 
-15.0122 -45.3379 -3.62161 -16.7596 -45.2707 -3.28239 -17.8326 -45.3379 -3.38563 
-18.7563 -44.968 -3.74514 -19.3396 -45.2412 -3.75778 -21.9719 -45.7151 -3.6753 
-21.4858 -45.2516 -3.99857 -22.6224 -45.6042 -3.3368 -25.2825 -45.0592 -4.04881 
-24.6224 -45.5323 -4.19008 -25.1218 -45.7976 -3.6995 -25.8673 -45.6354 -3.70381 
-26.0232 -45.1412 -4.13574 -26.5117 -45.6702 -3.97104 -30.0378 -44.7308 -3.89875 
-29.6181 -45.2415 -3.98963 -29.7961 -45.7154 -3.63833 -10.0927 -45.0162 -5.26399 
-10.8847 -45.0324 -5.1445 -11.9647 -45.3436 -4.39373 -11.3788 -45.5566 -5.11619 
-13.8506 -45.346 -4.22287 -17.8393 -45.0563 -5.26345 -18.3948 -45.3477 -4.88016 
-18.9829 -45.6634 -4.45856 -20.9777 -45.7969 -4.51554 -20.5058 -45.3519 -5.09522 
-22.9693 -44.905 -5.22578 -22.6466 -45.6066 -5.23408 -23.3435 -45.496 -4.81492 
-24.1042 -45.4721 -4.58372 -26.7662 -45.2554 -4.40444 -27.7356 -45.4096 -4.50643 
-28.8771 -45.3079 -4.45002 -9.84552 -45.6908 -5.68918 -9.33827 -45.1632 -5.98776 
-10.7792 -45.3435 -5.80485 -10.5999 -45.9032 -6.0992 -11.3118 -45.5518 -5.86828 
-17.045 -45.0702 -6.08474 -16.777 -45.4044 -6.16762 -17.3696 -45.6402 -5.77712 
-18.0287 -45.8084 -5.32289 -19.3262 -45.6413 -5.76227 -18.7091 -45.6446 -6.23342 
-19.126 -44.9288 -5.89295 -20.0406 -45.6168 -5.51197 -22.1743 -45.1011 -5.83186 
-21.5117 -45.3879 -6.11565 -21.8855 -45.8657 -5.66351 -9.08021 -45.15 -6.93288 
-8.79316 -45.7042 -6.40604 -8.63769 -45.8857 -6.97825 -11.1719 -45.7978 -6.3192 
[...]
CELL_DATA 25612
SCALARS scalars float
LOOKUP_TABLE default
1013 1013 1013 1013 1013 1013 1013 1013 1013 
1013 1013 1013 1013 1013 1013 1013 1013 1013 
1013 1013 1013 1013 1013 1013 1013 1013 1013 
1013 1013 1013 1013 1013 1013 1013 1013 1013 
1013 1013 1013 1013 1013 1013 1013 1013 1013 
1013 1013 1013 1013 1013 1013 1013 1013 1013 
1013 1013 1013 1013 1013 1013 1013 1013 1013 
1013 1013 1013 1013 1013 1013 1013 1013 1013 
1013 1013 1013 1013 1013 1013 1013 1013 1013 
1013 1013 1013 1013 1013 1013 1013 1013 1013 
1013 1013 1013 1013 1013 1013 1013 1013 1013 
1013 1013 1013 1013 1013 1013 1013 1013 1013 
1013 1013 1013 1013 1013 1013 1013 1013 1013 
1013 1013 1013 1013 1013 1013 1013 1013 1013 
1013 1013 1013 1013 1013 1013 1013 1013 1013 
1013 1013 1013 1013 1013 1013 1013 1013 1013 
1013 1013 1013 1013 1013 1013 1013 1013 1013 
1013 1013 1013 1013 1013 1013 1013 1013 1013 
1013 1013 1013 1013 1013 1013 1013 1013 1013 
1013 1013 1013 1013 1013 1013 1013 1013 1013 
1013 1013 1013 1013 1013 1013 1013 1013 1013 
1013 1013 1013 1013 1013 1013 1013 1013 1013 
1013 1013 1013 1013 1013 1013 1013 1013 1013 
1013 1013 1013 1013 1013 1013 1013 1013 1013 
1013 1013 1013 1013 1013 1013 1013 1013 1013 
1013 1013 1013 1013 1013 1013 1013 1013 1013 
1013 1013 1013 1013 1013 1013 1013 1013 1013 
1013 1013 1013 1013 1013 1013 1013 1013 1013 
1013 1013 1013 1013 1013 1013 1013 1013 1013 
1013 1013 1013 1013 1013 1013 1013 1013 1013 
1013 1013 1013 1013 1013 1013 1013 1013 1013 
1013 1013 1013 1013 1013 1013 1013 1013 1013 
1013 1013 1013 1013 1013 1013 1013 1013 1013 
1013 1013 1013 1013 1013 1013 1013 1013 1013 
1013 1013 1013 1013 1013 1013 1013 1013 1013 
1013 1013 1013 1013 1013 1013 1013 1013 1013 
1013 1013 1013 1013 1013 1013 1013 1013 1013 
1013 1013 1013 1013 1013 1013 1013 1013 1013 
1013 1013 1013 1013 1013 1013 1013 1013 1013 
1013 1013 1013 1013 1013 1013 1013 1013 1013 
1013 1013 1013 1013 1013 1013 1013 1013 1013 
1013 1013 1013 1013 1013 1013 1013 1013 1013 
1013 1013 1013 1013 1013 1013 1013 1013 1013 
1013 1013 1013 1013 1013 1013 1013 1013 1013 
1013 1013 1013 1013 1013 1013 1013 1013 1013 
1013 1013 1013 1013 1013 1013 1013 1013 1013 
1013 1013 1013 1013 1013 1013 1013 1013 1013 
1013 1013 1013 1013 1013 1013 1013 1013 1013 
1013 1013 1013 1013 1013 1013 1013 1013 1013 
1013 1013 1013 1013 1013 1013 1013 1013 1013 
1013 1013 1013 1013 1013 1013 1013 1013 1013 
1013 1013 1013 1013 1013 1013 1013 1013 1013 
1013 1013 1013 1013 1013 1013 1013 1013 1013 
1013 1013 1013 1013 1013 1013 1013 1013 1013 
1013 1013 1013 1013 1013 1013 1013 1013 1013 
1013 1013 1013 1013 1013 1013 1013 1013 1013 
1013 1013 1013 1013 1013 1013 1013 1013 1013 
1013 1013 1013 1013 1013 1013 1013 1013 1013 
1013 1013 1013 1013 1013 1013 1013 1013 1013 
1013 1013 1013 1013 1013 1013 1013 1013 1013 
1013 1013 1013 1013 1013 1013 1013 1013 1013 
1013 1013 1013 1013 1013 1013 1013 1013 1013 
1013 1013 1013 1013 1013 1013 1013 1013 1013 
1013 1013 1013 1013 1013 1013 1013 1013 1013 
1013 1013 1013 1013 1013 1013 1013 1013 1013 
1013 1013 1013 1013 1013 1013 1013 1013 1013 
1013 1013 1013 1013 1013 1013 1013 1013 1013 
1013 1013 1013 1013 1013 1013 1013 1013 1013 
1013 1013 1013 1013 1013 1013 1013 1013 1013 
1013 1013 1013 1013 1013 1013 1013 1013 1013 
1013 1013 1013 1013 1013 1013 1013 1013 1013 
1013 1013 1013 1013 1013 1013 1013 1013 1013 
1013 1013 1013 1013 1013 1013 1013 1013 1013 
1013 1013 1013 1013 1013 1013 1013 1013 1013 
1013 1013 1013 1013 1013 1013 1013 1013 1013 
1013 1013 1013 1013 1013 1013 1013 1013 1013 
1013 1013 1013 1013 1013 1013 1013 1013 1013 
1013 1013 1013 1013 1013 1013 1013 1013 1013 
1013 1013 1013 1013 1013 1013 1013 1013 1013 
1013 1013 1013 1013 1013 1013 1013 1013 1013 
1013 1013 1013 1013 1013 1013 1013 1013 1013 
1013 1013 1013 1013 1013 1013 1013 1013 1013 
1013 1013 1013 1013 1013 1013 1013 1013 1013 
1013 1013 1013 1013 1013 1013 1013 1013 1013 
1013 1013 1013 1013 1013 1013 1013 1013 1013 
1013 1013 1013 1013 1013 1013 1013 1013 1013 
1013 1013 1013 1013 1013 1013 1013 1013 1013 
1013 1013 1013 1013 1013 1013 1013 1013 1013 
1013 1013 1013 1013 1013 1013 1013 1013 1013 
1013 1013 1013 1013 1013 1013 1013 1013 1013 
1013 1013 1013 1013 1013 1013 1013 1013 1013 
1013 1013 1013 1013 1013 1013 1013 1013 1013 
1013 1013 1013 1013 1013 1013 1013 1013 1013 
1013 1013 1013 1013 1013 1013 1013 1013 1013 
1013 1013 1013 1013 1013 1013 1013 1013 1013 
1013 1013 1013 1013 1013 1013 1013 1013 1013 
1013 1013 1013 1013 1013 1013 1013 1013 1013 
1013 1013 1013 1013 1013 1013 1013 1013 1013 
1013 1013 1013 1013 1013 1013 1013 1013 1013 
1013 1013 1013 1013 1013 1013 1013 1013 1013 
1013 1013 1013 1013 1013 1013 1013 1013 1013 
1013 1013 1013 1013 1013 1013 1013 1013 1013 
1013 1013 1013 1013 1013 1013 1013 1013 1013 
1013 1013 1013 1013 1013 1013 1013 1013 1013 
1013 1013 1013 1013 1013 1013 1013 1013 1013 
1013 1013 1013 1013 1013 1013 1013 1013 1013 
1013 1013 1013 1013 1013 1013 1013 1013 1013 
1013 1013 1013 1013 1013 1013 1013 1013 1013 
1013 1013 1013 1013 1013 1013 1013 1013 1013 
1013 1013 1013 1013 1013 1013 1013 1013 1013 
1013 1013 1013 1013 1013 1013 1013 1013 1013 
1013 1013 1013 1013 1013 1013 1013 1013 1013 
1013 1013 1013 1013 1013 1013 1013 1013 1013 
1013 1013 1013 1013 1013 1013 1013 1013 1013 
1013 1013 1013 1013 1013 1013 1013 1013 1013 
1013 1013 1013 1013 1013 1013 1013 1013 1013 
1013 1013 1013 1013 1013 1013 1013 1013 1013 
1013 1013 1013 1013 1013 1013 1013 1013 1013 
1013 1013 1013 1013 1013 1013 1013 1013 1013 
1013 1013 1013 1013 1013 1013 1013 1013 1013 
1013 1013 1013 1013 1013 1013 1013 1013 1013 
1013 1013 1013 1013 1013 1013 1013 1013 1013 
1013 1013 1013 1013 1013 1013 1013 1013 1013 
1013 1013 1013 1013 1013 1013 1013 1013 1013 
1013 1013 1013 1013 1013 1013 1013 1013 1013 
1013 1013 1013 1013 1013 1013 1013 1013 1013 
1013 1013 1013 1013 1013 1013 1013 1013 1013 
1013 1013 1013 1013 1013 1013 1013 1013 1013 
1013 1013 1013 1013 1013 1013 1013 1013 1013 
1013 1013 1013 1013 1013 1013 1013 1013 1013 
1013 1013 1013 1013 1013 1013 1013 1013 1013 
1013 1013 1013 1013 1013 1013 1013 1013 1013 
1013 1013 1013 1013 1013 1013 1013 1013 1013 
1013 1013 1013 1013 1013 1013 1013 1013 1013 
1013 1013 1013 1013 1013 1013 1013 1013 1013 
1013 1013 1013 1013 1013 1013 1013 1013 1013 
1013 1013 1013 1013 1013 1013 1013 1013 1013 
1013 1013 1013 1013 1013 1013 1013 1013 1013 
1013 1013 1013 1013 1013 1013 1013 1013 1013 
1013 1013 1013 1013 1013 1013 1013 1013 1013 
1013 1013 1013 1013 1013 1013 1013 1013 1013 
1013 1013 1013 1013 1013 1013 1013 1013 1013 
1013 1013 1013 1013 1013 1013 1013 1013 1013 
1013 1013 1013 1013 1013 1013 1013 1013 1013 
1013 1013 1013 1013 1013 1013 1013 1013 1013 
1013 1013 1013 1013 1013 1013 1013 1013 1013 
1013 1013 1013 1013 1013 1013 1013 1013 1013 
1013 1013 1013 1013 1013 1013 1013 1013 1013 
1013 1013 1013 1013 1013 1013 1013 1013 1013 
1013 1013 1013 1013 1013 1013 1013 1013 1013 
1013 1013 1013 1013 1013 1013 1013 1013 1013 
1013 1013 1013 1013 1013 1013 1013 1013 1013 
1013 1013 1013 1013 1013 1013 1013 1013 1013 
1013 1013 1013 1013 1013 1013 1013 1013 1013 
1013 1013 1013 1013 1013 1013 1013 1013 1013 
1013 1013 1013 1013 1013 1013 1013 1013 1013 
1013 1013 1013 1013 1013 1013 1013 1013 1013 
1013 1013 1013 1013 1013 1013 1013 1013 1013 
1013 1013 1013 1013 1013 1013 1013 1013 1013 
1013 1013 1013 1013 1013 1013 1013 1013 1013 
1013 1013 1013 1013 1013 1013 1013 1013 1013 
1013 1013 1013 1013 1013 1013 1013 1013 1013 
1013 1013 1013 1013 1013 1013 1013 1013 1013 
1013 1013 1013 1013 1013 1013 1013 1013 1013 
1013 1013 1013 1013 1013 1013 1013 1013 1013 
1013 1013 1013 1013 1013 1013 1013 1013 1013 
1013 1013 1013 1013 1013 1013 1013 1013 1013 
1013 1013 1013 1013 1013 1013 1013 1013 1013 
1013 1013 1013 1013 1013 1013 1013 1013 1013 
1013 1013 1013 1013 1013 1013 1013 1013 1013 
1013 1013 1013 1013 1013 1013 1013 1013 1013 
1013 1013 1013 1013 1013 1013 1013 1013 1013 
1013 1013 1013 1013 1013 1013 1013 1013 1013 
1013 1013 1013 1013 1013 1013 1013 1013 1013 
1013 1013 1013 1013 1013 1013 1013 1013 1013 
1013 1013 1013 1013 1013 1013 1013 1013 1013 
1013 1013 1013 1013 1013 1013 1013 1013 1013 
1013 1013 1013 1013 1013 1013 1013 1013 1013 
1013 1013 1013 1013 1013 1013 1013 1013 1013 
1013 1013 1013 1013 1013 1013 1013 1013 1013 
1013 1013 1013 1013 1013 1013 1013 1013 1013 
1013 1013 1013 1013 1013 1013 1013 1013 1013 
1013 1013 1013 1013 1013 1013 1013 1013 1013 
1013 1013 1013 1013 1013 1013 1013 1013 1013 
1013 1013 1013 1013 1013 1013 1013 1013 1013 
1013 1013 1013 1013 1013 1013 1013 1013 1013 
1013 1013 1013 1013 1013 1013 1013 1013 1013 
1013 1013 1013 1013 1013 1013 1013 1013 1013 
1013 1013 1013 1013 1013 1013 1013 1013 1013 
1013 1013 1013 1013 1013 1013 1013 1013 1013 
1013 1013 1013 1013 1013 1013 1013 1013 1013 
1013 1013 1013 1013 1013 1013 1013 1013 1013 
1013 1013 1013 1013 1013 1013 1013 1013 1013 
1013 1013 1013 1013 1013 1013 1013 1013 1013 
1013 1013 1013 1013 1013 1013 1013 1013 1013 
1013 1013 1013 1013 1013 1013 1013 1013 1013 
1013 1013 1013 1013 1013 1013 1013 1013 1013 
1013 1013 1013 1013 1013 1013 1013 1013 1013 
1013 1013 1013 1013 1013 1013 1013 1013 1013 
1013 1013 1013 1013 1013 1013 1013 1013 1013 
1013 1013 1013 1013 1013 1013 1013 1013 1013 
1013 1013 1013 1013 1013 1013 1013 1013 1013 
1013 1013 1013 1013 1013 1013 1013 1013 1013 
1013 1013 1013 1013 1013 1013 1013 1013 1013 
1013 1013 1013 1013 1013 1013 1013 1013 1013 
1013 1013 1013 1013 1013 1013 1013 1013 1013 
1013 1013 1013 1013 1013 1013 1013 1013 1013 
1013 1013 1013 1013 1013 1013 1013 1013 1013 
1013 1013 1013 1013 1013 1013 1013 1013 1013 
1013 1013 1013 1013 1013 1013 1013 1013 1013 
1013 1013 1013 1013 1013 1013 1013 1013 1013 
1013 1013 1013 1013 1013 1013 1013 1013 1013 
1013 1013 1013 1013 1013 1013 1013 1013 1013 
1013 1013 1013 1013 1013 1013 1013 1013 1013 
1013 1013 1013 1013 1013 1013 1013 1013 1013 
1013 1013 1013 1013 1013 1013 1013 1013 1013 
1013 1013 1013 1013 1013 1013 1013 1013 1013 
1013 1013 1013 1013 1013 1013 1013 1013 1013 
1013 1013 1013 1013 1013 1013 1013 1013 1013 
1013 1013 1013 1013 1013 1013 1013 1013 1013 
1013 1013 1013 1013 1013 1013 1013 1013 1013 
1013 1013 1013 1013 1013 1013 1013 1013 1013 
1013 1013 1013 1013 1013 1013 1013 1013 1013 
1013 1013 1013 1013 1013 1013 1013 1013 1013 
1013 1013 1013 1013 1013 1013 1013 1013 1013 
1013 1013 1013 1013 1013 1013 1013 1013 1013 
1013 1013 1013 1013 1013 1013 1013 1013 1013 
1013 1013 1013 1013 1013 1013 1013 1013 1013 
1013 1013 1013 1013 1013 1013 1013 1013 1013 
1013 1013 1013 1013 1013 1013 1013 1013 1013 
1013 1013 1013 1013 1013 1013 1013 1013 1013 
1013 1013 1013 1013 1013 1013 1013 1013 1013 
1013 1013 1013 1013 1013 1013 1013 1013 1013 
1013 1013 1013 1013 1013 1013 1013 1013 1013 
1013 1013 1013 1013 1013 1013 1013 1013 1013 
1013 1013 1013 1013 1013 1013 1013 1013 1013 
1013 1013 1013 1013 1013 1013 1013 1013 1013 
1013 1013 1013 1013 1013 1013 1013 1013 1013 
1013 1013 1013 1013 1013 1013 1013 1013 1013 
1013 1013 1013 1013 1013 1013 1013 1013 1013 
1013 1013 1013 1013 1013 1013 1013 1013 1013 
1013 1013 1013 1013 1013 1013 1013 1013 1013 
1013 1013 1013 1013 1013 1013 1013 1013 1013 
1013 1013 1013 1013 1013 1013 1013 1013 1013 
1013 1013 1013 1013 1013 1013 1013 1013 1013 
1013 1013 1013 1013 1013 1013 1013 1013 1013 
1013 1013 1013 1013 1013 1013 1013 1013 1013 
1013 1013 1013 1013 1013 1013 1013 1013 1013 
1013 1013 1013 1013 1013 1013 1013 1013 1013 
1013 1013 1013 1013 1013 1013 1013 1013 1013 
1013 1013 1013 1013 1013 1013 1013 1013 1013 
1013 1013 1013 1013 1013 1013 1013 1013 1013 
1013 1013 1013 1013 1013 1013 1013 1013 1013 
1013 1013 1013 1013 1013 1013 1013 1013 1013 
1013 1013 1013 1013 1013 1013 1013 1013 1013 
1013 1013 1013 1013 1013 1013 1013 1013 1013 
1013 1013 1013 1013 1013 1013 1013 1013 1013 
1013 1013 1013 1013 1013 1013 1013 1013 1013 
1013 1013 1013 1013 1013 1013 1013 1013 1013 
1013 1013 1013 1013 1013 1013 1013 1013 1013 
1013 1013 1013 1013 1013 1013 1013 1013 1013 
1013 1013 1013 1013 1013 1013 1013 1013 1013 
1013 1013 1013 1013 1013 1013 1013 1013 1013 
1013 1013 1013 1013 1013 1013 1013 1013 1013 
1013 1013 1013 1013 1013 1013 1013 1013 1013 
1013 1013 1013 1013 1013 1013 1013 1013 1013 
1013 1013 1013 1013 1013 1013 1013 1013 1013 
1013 1013 1013 1013 1013 1013 1013 1013 1013 
1013 1013 1013 1013 1013 1013 1013 1013 1013 
1013 1013 1013 1013 1013 1013 1013 1013 1013 
1013 1013 1013 1013 1013 1013 1013 1013 1013 
1013 1013 1013 1013 1013 1013 1013 1013 1013 
1013 1013 1013 1013 1013 1013 1013 1013 1013 
1013 1013 1013 1013 1013 1013 1013 1013 1013 
1013 1013 1013 1013 1013 1013 1013 1013 1013 
1013 1013 1013 1013 1013 1013 1013 1013 1013 
1013 1013 1013 1013 1013 1013 1013 1013 1013 
1013 1013 1013 1013 1013 1013 1013 1013 1013 
1013 1013 1013 1013 1013 1013 1013 1013 1013 
1013 1013 1013 1013 1013 1013 1013 1013 1013 
1013 1013 1013 1013 1013 1013 1013 1013 1013 
1013 1013 1013 1013 1013 1013 1013 1013 1013 
1013 1013 1013 1013 1013 1013 1013 1013 1013 
1013 1013 1013 1013 1013 1013 1013 1013 1013 
1013 1013 1013 1013 1013 1013 1013 1013 1013 
1013 1013 1013 1013 1013 1013 1013 1013 1013 
1013 1013 1013 1013 1013 1013 1013 1013 1013 
1013 1013 1013 1013 1013 1013 1013 1013 1013 
1013 1013 1013 1013 1013 1013 1013 1013 1013 
1013 1013 1013 1013 1013 1013 1013 1013 1013 
1013 1013 1013 1013 1013 1013 1013 1013 1013 
1013 1013 1013 1013 1013 1013 1013 1013 1013 
1013 1013 1013 1013 1013 1013 1013 1013 1013 
1013 1013 1013 1013 1013 1013 1013 1013 1013 
1013 1013 1013 1013 1013 1013 1013 1013 1013 
1013 1013 1013 1013 1013 1013 1013 1013 1013 
1013 1013 1013 1013 1013 1013 1013 1013 1013 
1013 1013 1013 1013 1013 1013 1013 1013 1013 
1013 1013 1013 1013 1013 1013 1013 1013 1013 
1013 1013 1013 1013 1013 1013 1013 1013 1013 
1013 1013 1013 1013 1013 1013 1013 1013 1013 
1013 1013 1013 1013 1013 1013 1013 1013 1013 
1013 1013 1013 1013 1013 1013 1013 1013 1013 
1013 1013 1013 1013 1013 1013 1013 1013 1013 
1013 1013 1013 1013 1013 1013 1013 1013 1013 
1013 1013 1013 1013 1013 1013 1013 1013 1013 
1013 1013 1013 1013 1013 1013 1013 1013 1013 
1013 1013 1013 1013 1013 1013 1013 1013 1013 
1013 1013 1013 1013 1013 1013 1013 1013 1013 
1013 1013 1013 1013 1013 1013 1013 1013 1013 
1013 1013 1013 1013 1013 1013 1013 1013 1013 
1013 1013 1013 1013 1013 1013 1013 1013 1013 
1013 1013 1013 1013 1013 1013 1013 1013 1013 
1013 1013 1013 1013 1013 1013 1013 1013 1013 
1013 1013 1013 1013 1013 1013 1013 1013 1013 
1013 1013 1013 1013 1013 1013 1013 1013 1013 
1013 1013 1013 1013 1013 1013 1013 1013 1013 
1013 1013 1013 1013 1013 1013 1013 1013 1013 
1013 1013 1013 1013 1013 1013 1013 1013 1013 
1013 1013 1013 1013 1013 1013 1013 1013 1013 
1013 1013 1013 1013 1013 1013 1013 1013 1013 
1013 1013 1013 1013 1013 1013 1013 1013 1013 
1013 1013 1013 1013 1013 1013 1013 1013 1013 
1013 1013 1013 1013 1013 1013 1013 1013 1013 
1013 1013 1013 1013 1013 1013 1013 1013 1013 
1013 1013 1013 1013 1013 1013 1013 1013 1013 
1013 1013 1013 1013 1013 1013 1013 1013 1013 
1013 1013 1013 1013 1013 1013 1013 1013 1013 
1013 1013 1013 1013 1013 1013 1013 1013 1013 
1013 1013 1013 1013 1013 1013 1013 1013 1013 
1013 1013 1013 1013 1013 1013 1013 1013 1013 
1013 1013 1013 1013 1013 1013 1013 1013 1013 
1013 1013 1013 1013 1013 1013 1013 1013 1013 
1013 1013 1013 1013 1013 1013 1013 1013 1013 
1013 1013 1013 1013 1013 1013 1013 1013 1013 
1013 1013 1013 1013 1013 1013 1013 1013 1013 
1013 1013 1013 1013 1013 1013 1013 1013 1013 
1013 1013 1013 1013 1013 1013 1013 1013 1013 
1013 1013 1013 1013 1013 1013 1013 1013 1013 
1013 1013 1013 1013 1013 1013 1013 1013 1013 
1013 1013 1013 1013 1013 1013 1013 1013 1013 
1013 1013 1013 1013 1013 1013 1013 1013 1013 
1013 1013 1013 1013 1013 1013 1013 1013 1013 
1013 1013 1013 1013 1013 1013 1013 1013 1013 
1013 1013 1013 1013 1013 1013 1013 1013 1013 
1013 1013 1013 1013 1013 1013 1013 1013 1013 
1013 1013 1013 1013 1013 1013 1013 1013 1013 
1013 1013 1013 1013 1013 1013 1013 1013 1013 
1013 1013 1013 1013 1013 1013 1013 1013 1013 
1013 1013 1013 1013 1013 1013 1013 1013 1013 
1013 1013 1013 1013 1013 1013 1013 1013 1013 
1013 1013 1013 1013 1013 1013 1013 1013 1013 
1013 1013 1013 1013 1013 1013 1013 1013 1013 
1013 1013 1013 1013 1013 1013 1013 1013 1013 
1013 1013 1013 1013 1013 1013 1013 1013 1013 
1013 1013 1013 1013 1013 1013 1013 1013 1013 
1013 1013 1013 1013 1013 1013 1013 1013 1013 
1013 1013 1013 1013 1013 1013 1013 1013 1013 
1013 1013 1013 1013 1013 1013 1013 1013 1013 
1013 1013 1013 1013 1013 1013 1013 1013 1013 
1013 1013 1013 1013 1013 1013 1013 1013 1013 
1013 1013 1013 1013 1013 1013 1013 1013 1013 
1013 1013 1013 1013 1013 1013 1013 1013 1013 
1013 1013 1013 1013 1013 1013 1013 1013 1013 
1013 1013 1013 1013 1013 1013 1013 1013 1013 
1013 1013 1013 1013 1013 1013 1013 1013 1013 
1013 1013 1013 1013 1013 1013 1013 1013 1013 
1013 1013 1013 1013 1013 1013 1013 1013 1013 
1013 1013 1013 1013 1013 1013 1013 1013 1013 
1013 1013 1013 1013 1013 1013 1013 1013 1013 
1013 1013 1013 1013 1013 1013 1013 1013 1013 
1013 1013 1013 1013 1013 1013 1013 1013 1013 
1013 1013 1013 1013 1013 1013 1013 1013 1013 
1013 1013 1013 1013 1013 1013 1013 1013 1013 
1013 1013 1013 1013 1013 1013 1013 1013 1013 
1013 1013 1013 1013 1013 1013 1013 1013 1013 
1013 1013 1013 1013 1013 1013 1013 1013 1013 
1013 1013 1013 1013 1013 1013 1013 1013 1013 
1013 1013 1013 1013 1013 1013 1013 1013 1013 
1013 1013 1013 1013 1013 1013 1013 1013 1013 
1013 1013 1013 1013 1013 1013 1013 1013 1013 
1013 1013 1013 1013 1013 1013 1013 1013 1013 
1013 1013 1013 1013 1013 1013 1013 1013 1013 
1013 1013 1013 1013 1013 1013 1013 1013 1013 
1013 1013 1013 1013 1013 1013 1013 1013 1013 
1013 1013 1013 1013 1013 1013 1013 1013 1013 
1013 1013 1013 1013 1013 1013 1013 1013 1013 
1013 1013 1013 1013 1013 1013 1013 1013 1013 
1013 1013 1013 1013 1013 1013 1013 1013 1013 
1013 1013 1013 1013 1013 1013 1013 1013 1013 
1013 1013 1013 1013 1013 1013 1013 1013 1013 
1013 1013 1013 1013 1013 1013 1013 1013 1013 
1013 1013 1013 1013 1013 1013 1013 1013 1013 
1013 1013 1013 1013 1013 1013 1013 1013 1013 
1013 1013 1013 1013 1013 1013 1013 1013 1013 
1013 1013 1013 1013 1013 1013 1013 1013 1013 
1013 1013 1013 1013 1013 1013 1013 1013 1013 
1013 1013 1013 1013 1013 1013 1013 1013 1013 
1013 1013 1013 1013 1013 1013 1013 1013 1013 
1013 1013 1013 1013 1013 1013 1013 1013 1013 
1013 1013 1013 1013 1013 1013 1013 1013 1013 
1013 1013 1013 1013 1013 1013 1013 1013 1013 
1013 1013 1013 1013 1013 1013 1013 1013 1013 
1013 1013 1013 1013 1013 1013 1013 1013 1013 
1013 1013 1013 1013 1013 1013 1013 1013 1013 
1013 1013 1013 1013 1013 1013 1013 1013 1013 
1013 1013 1013 1013 1013 1013 1013 1013 1013 
1013 1013 1013 1013 1013 1013 1013 1013 1013 
1013 1013 1013 1013 1013 1013 1013 1013 1013 
1013 1013 1013 1013 1013 1013 1013 1013 1013 
1013 1013 1013 1013 1013 1013 1013 1013 1013 
1013 1013 1013 1013 1013 1013 1013 1013 1013 
1013 1013 1013 1013 1013 1013 1013 1013 1013 
1013 1013 1013 1013 1013 1013 1013 1013 1013 
1013 1013 1013 1013 1013 1013 1013 1013 1013 
1013 1013 1013 1013 1013 1013 1013 1013 1013 
1013 1013 1013 1013 1013 1013 1013 1013 1013 
1013 1013 1013 1013 1013 1013 1013 1013 1013 
1013 1013 1013 1013 1013 1013 1013 1013 1013 
1013 1013 1013 1013 1013 1013 1013 1013 1013 
1013 1013 1013 1013 1013 1013 1013 1013 1013 
1013 1013 1013 1013 1013 1013 1013 1013 1013 
1013 1013 1013 1013 1013 1013 1013 1013 1013 
1013 1013 1013 1013 1013 1013 1013 1013 1013 
1013 1013 1013 1013 1013 1013 1013 1013 1013 
1013 1013 1013 1013 1013 1013 1013 1013 1013 
1013 1013 1013 1013 1013 1013 1013 1013 1013 
1013 1013 1013 1013 1013 1013 1013 1013 1013 
1013 1013 1013 1013 1013 1013 1013 1013 1013 
1013 1013 1013 1013 1013 1013 1013 1013 1013 
1013 1013 1013 1013 1013 1013 1013 1013 1013 
1013 1013 1013 1013 1013 1013 1013 1013 1013 
1013 1013 1013 1013 1013 1013 1013 1013 1013 