# vtk DataFile Version 4.0
vtk output
ASCII
DATASET POLYDATA
POINTS 6784 float
45.0226 28.5625 14.1939 45.1392 28.297 13.9932 45.0057 28.7184 14.0297 
44.8678 28.4051 14.0733 44.9397 28.3506 13.8306 44.9473 27.6101 15.9788 
45.1142 27.4778 16.225 45.248 27.509 15.9713 44.7435 27.4423 16.1422 
45.073 27.2887 15.7313 43.8885 27.5618 15.3826 44.2131 27.4544 15.1513 
43.7461 27.7014 15.0511 43.2212 27.6872 14.8905 43.3307 27.5725 15.3748 
42.7327 27.4728 15.123 45.0021 27.9325 14.2646 45.2846 27.2424 13.915 
44.6345 27.4709 13.8749 43.7864 27.2849 14.5984 42.7753 27.2478 14.6742 
44.988 27.6167 13.5212 55.949 26.865 17.8795 55.9363 26.5962 18.4447 
56.5289 26.5714 18.0394 55.2852 26.7383 17.798 55.355 26.5445 18.5001 
54.7795 26.4314 18.2288 48.9792 26.5912 17.966 48.8846 26.2965 18.237 
49.3477 26.319 18.0382 48.6056 26.3875 18.0355 46.8561 26.8668 17.8049 
47.1119 26.2036 18.3485 47.6254 26.5989 17.844 45.76 26.9261 17.9083 
46.0031 26.4065 18.4118 44.8231 26.8252 17.7851 45.0853 26.4117 18.344 
44.4642 26.3836 18.1244 56.6982 26.9345 17.0301 57.1465 26.396 17.5928 
57.3653 26.4419 16.8948 55.7414 26.9613 16.9295 55.2371 26.621 17.1569 
54.8445 26.4405 17.6037 53.9981 26.5011 17.2585 54.2198 26.4381 17.0936 
53.9784 26.5699 16.9843 53.7573 26.4314 17.0946 48.8554 26.4682 17.7272 
48.0357 26.5244 17.5051 48.264 26.4065 16.9732 47.7086 26.7816 17.116 
46.9245 27.03 16.8883 46.1937 27.0845 17.1917 45.0667 27.1572 16.8684 
44.1288 26.6012 17.7183 43.8978 26.9279 17.0084 42.7195 26.883 16.8629 
43.2922 26.5335 17.548 41.805 26.8168 16.7285 42.1414 26.3306 17.5345 
41.4673 26.3884 17.0854 56.9359 27.005 15.9609 57.4157 26.4421 15.9716 
56.2016 27.1329 16.112 55.1631 26.6386 16.5316 55.3714 26.841 15.8315 
53.9581 26.3706 16.7287 54.6045 26.2516 15.8862 47.8964 26.5552 16.373 
47.4665 26.4028 15.7584 47.2366 26.7851 16.235 45.9692 27.0765 16.1771 
44.172 27.2752 15.8686 42.9167 27.1822 15.9279 41.97 27.0361 15.9685 
41.1674 26.5926 16.5543 40.9742 26.8544 15.858 40.5878 26.4687 16.1186 
37.9366 26.8128 15.6632 37.8705 26.5659 16.2688 38.4077 26.5802 15.9668 
37.5729 26.2895 16.2278 57.0238 26.8658 15.1895 57.324 26.2127 14.9312 
56.2024 26.9335 15.1661 55.3296 26.379 14.9014 54.8816 26.3606 15.3641 
46.6755 26.4551 15.5268 45.7721 26.6633 15.3413 44.8362 27.1694 14.8159 
45.611 26.5257 14.596 42.1771 27.1118 15.1441 41.2586 26.8972 15.1231 
40.1048 26.6101 15.6013 39.965 26.8202 14.9642 38.7409 26.9302 15.1298 
39.3024 26.5671 15.5584 38.1542 26.862 14.7435 37.6476 26.4854 15.3108 
56.6801 26.5689 14.4997 55.9619 26.3915 14.4648 45.6523 26.4469 13.749 
44.1829 26.9698 14.1555 43.599 26.6276 14.0518 42.8912 26.6271 14.256 
41.8343 26.6376 14.4829 40.677 26.5122 14.4767 39.662 26.3114 14.2079 
39.315 26.5623 13.621 39.022 26.8232 14.0213 38.4606 26.4876 13.9257 
37.8977 26.5419 14.6276 57.0317 26.7092 12.9517 57.0253 26.643 13.2054 
57.3848 26.4107 13.0112 56.7185 26.3377 13.1304 45.0797 26.9121 13.0342 
45.4808 26.4578 12.9912 44.4832 26.5982 13.0008 43.9236 26.5284 13.577 
39.1155 26.6816 13.0565 39.1808 26.4279 13.0585 38.847 26.5935 13.0706 
57.0843 26.2211 12.7233 44.9945 26.1332 12.5127 39.0287 26.4965 12.7038 
55.9307 26.0697 18.8562 56.1037 25.1973 19.3837 56.6544 25.6003 18.9151 
54.7281 26.0515 18.9096 55.019 25.4119 19.4262 53.7318 25.9098 18.9296 
54.017 25.3994 19.449 52.7464 25.9205 18.9428 53.0463 25.3917 19.4467 
51.7493 25.9424 18.9315 52.0383 25.4012 19.4471 50.7682 25.9222 18.8984 
51.0182 25.3823 19.4555 49.9116 25.8901 18.7707 50.0981 25.3496 19.3722 
49.4569 25.3356 19.1441 56.8953 25.9721 18.3058 57.1413 25.3764 18.6394 
57.414 25.5621 17.9079 54.0961 26.2446 17.7678 52.9971 26.0601 17.9945 
52.0052 26.0729 18.0272 51.029 26.0883 18.0214 50.0907 26.1338 17.9891 
49.1401 25.782 18.6487 48.193 26.2985 17.7957 48.1692 25.7746 18.5116 
47.135 25.4976 18.7284 46.0809 25.512 18.6791 45.0136 25.5553 18.55 
43.7119 26.1174 18.0507 44.0576 25.5804 18.4279 42.7691 26.0209 18.028 
42.9636 25.3749 18.4018 42.12 25.9137 18.0456 42.0494 25.3673 18.3417 
41.5119 25.5335 18.0455 57.5527 25.537 16.9807 54.6162 26.332 16.8332 
53.275 26.1353 16.8839 52.2658 25.9154 16.8711 51.2574 25.9023 17.1111 
50.1307 25.9562 16.979 49.0287 26.2112 17.1229 40.6867 26.0713 16.7846 
41.1445 25.7889 17.5259 39.7957 25.7615 16.647 40.0979 25.2796 17.4327 
39.4521 25.2964 17.0017 38.0086 26.0339 16.6897 37.9134 25.5008 17.2777 
38.4511 25.5052 16.9928 37.5572 25.4041 17.1037 57.5042 25.5238 15.9917 
53.8761 26.0757 16.1797 53.0335 25.8228 16.0308 52.5557 25.5971 16.0467 
51.9183 25.2534 16.4747 50.7148 25.3995 16.611 49.9159 25.5402 16.3731 
49.4531 25.1778 15.9835 49.0979 25.8662 16.0532 48.1549 26.1879 15.9713 
39.9279 26.2137 16.0626 39.1388 25.5345 16.704 38.9912 26.0219 16.2942 
37.5398 25.6429 15.9787 57.4745 25.3327 15.1567 54.8813 26.0395 14.9825 
54.5422 25.4769 15.0986 53.9035 25.561 15.6616 53.192 25.458 15.7339 
48.7955 25.38 15.4844 48.3418 25.3934 15.0351 48.1167 25.8418 15.0401 
47.0712 26.0749 14.9778 46.2018 26.1909 14.9464 37.8663 25.4956 15.4496 
37.9941 26.0159 14.8552 38.4295 25.4712 14.9674 57.0145 26.2097 13.7303 
57.567 25.3915 14.0109 56.216 26.0743 14.0341 55.5108 25.7814 14.1596 
54.9043 25.5309 14.4719 47.9235 25.576 14.5156 47.4964 25.4264 14.0535 
47.1031 25.7945 14.0311 46.1568 26.0764 14.1812 43.0144 26.1099 13.5729 
41.9477 26.119 13.7721 40.9127 26.128 13.8249 40.1352 26.0661 13.9206 
39.6508 25.5904 13.677 39.2132 25.5437 14.3883 38.9486 26.0986 13.9736 
57.8364 25.8082 13.2225 58.0069 25.3219 13.2057 58.1748 25.4684 12.9584 
56.0397 25.6716 13.5286 56.4107 25.4802 12.7509 46.9132 25.5092 13.4514 
46.4431 25.3888 13.0007 46.165 25.9026 13.2065 43.6974 26.0205 13.039 
43.0912 25.7481 12.8705 42.1978 25.7789 13.0056 41.155 25.8075 13.0264 
40.1164 25.7234 13.0906 39.6672 25.4419 12.9404 38.9122 26.3398 13.0726 
57.764 25.6648 12.7548 57.0998 25.3578 12.4373 45.733 25.6906 12.5802 
45.1561 25.4269 12.4647 44.1129 25.6105 12.5899 42.9423 25.4238 12.626 
41.9056 25.4437 12.6206 40.8701 25.4382 12.5999 40.0823 25.3617 12.6543 
56.9205 25.0892 19.1291 56.8181 24.3416 19.3943 57.366 24.7255 18.777 
55.8702 24.3517 19.5644 55.0163 24.5249 19.5619 54.0132 24.5224 19.5697 
53.0186 24.4892 19.5714 52.0206 24.49 19.5753 50.9983 24.4797 19.5849 
49.9864 24.5004 19.5714 48.6685 25.056 19.0694 49.1783 24.6702 19.4332 
47.6669 24.9739 19.0452 48.0675 24.3654 19.2983 46.6541 25.0065 19.0419 
46.9652 24.4965 19.2455 45.8609 24.8474 18.9493 46.1806 24.5838 19.1838 
45.6877 24.339 18.9409 57.6653 24.5114 17.9202 45.0841 24.4249 18.636 
43.9724 24.4831 18.544 42.9613 24.4702 18.5485 41.9335 24.4538 18.5152 
40.6469 25.0611 18.0136 40.9732 24.5289 18.3877 40.0486 24.8318 17.9733 
40.0126 24.3316 18.2814 39.4947 24.4627 17.9786 38.0194 24.9773 17.701 
37.9219 24.4714 18.3218 38.4209 24.494 18.0046 37.5526 24.3809 18.1314 
57.6478 24.6323 16.7644 38.7933 25.0543 17.2409 39.1666 24.7295 17.5571 
37.4989 24.5729 17.0043 57.5894 24.6289 15.7543 53.671 24.9626 15.9535 
54.427 24.6907 15.66 54.1058 24.1413 16.3929 52.8917 24.4774 16.4125 
52.8981 25.1999 16.0138 51.8396 24.2674 16.5558 50.9803 24.4747 16.5359 
50.1302 24.7713 16.3692 49.5015 24.1929 16.0264 38.0941 24.1653 16.4483 
38.0081 25.0041 15.8685 38.5652 24.5751 15.8494 57.5735 24.5887 14.7668 
54.6204 24.5121 14.8317 48.8749 24.4889 15.6504 48.1127 24.5823 15.4012 
47.7709 25.084 14.8115 47.086 24.3607 15.4343 46.8426 24.8688 14.8854 
46.0795 24.3692 15.4743 45.8283 24.8718 14.9141 45.0661 24.409 15.4618 
44.8124 24.898 14.9068 44.069 24.4251 15.4509 43.8166 24.9046 14.9036 
43.0782 24.4249 15.4437 42.8201 24.8986 14.8946 42.0804 24.414 15.4233 
41.795 24.8789 14.8587 41.0562 24.4077 15.3829 40.7427 24.8744 14.847 
40.2071 24.5028 15.3366 39.8392 24.8301 15.0073 39.3438 24.3558 15.5696 
38.9649 24.9835 15.1145 57.6437 24.5067 13.8248 55.0801 25.0446 13.6433 
54.6096 24.4693 13.9453 46.9735 25.1398 13.8493 46.0889 24.9704 13.9519 
45.065 24.9763 13.9648 44.0566 24.9986 13.9572 43.0618 25.0073 13.9472 
42.0413 24.9996 13.9206 40.978 24.9982 13.94 39.891 25.1059 14.242 
58.072 25.2343 12.9125 57.7039 24.9193 12.8533 55.6806 25.09 13.1183 
55.1126 24.7159 12.9668 54.58 24.3253 12.9951 45.9833 25.1425 12.9734 
45.0599 25.0728 13.0014 44.0092 25.0962 13.0175 42.9826 25.106 13.0066 
41.9625 25.1204 12.9788 40.9353 25.1098 12.9779 40.0383 25.181 13.1939 
58.007 24.528 12.4199 58.3477 24.2824 12.0327 57.8615 24.6924 12.0964 
57.2985 24.7991 12.0228 56.4654 24.5241 11.953 55.704 24.6045 12.4484 
54.9132 24.2946 12.4561 57.9112 24.3524 11.6567 57.1297 24.2613 11.4731 
53.043 24.6827 7.0869 53.118 24.2167 7.32867 53.2927 24.4791 6.90421 
52.611 24.4372 7.15155 52.8747 24.5075 6.81229 55.0239 24.6796 4.93135 
55.1789 24.5198 5.21879 55.4392 24.427 4.87646 54.7569 24.4906 5.11442 
55.0275 24.2824 4.71595 53.7746 24.7232 4.0337 53.9327 24.5505 4.32929 
54.196 24.2525 4.04775 53.0239 24.8119 3.95845 53.3094 24.5719 4.42966 
51.9867 24.82 3.9386 52.2643 24.5549 4.43906 51.1747 24.7379 3.84768 
51.0504 24.3407 4.43518 50.4554 24.2036 3.83647 53.6919 24.4142 3.68326 
52.8293 24.6181 3.62358 51.8924 24.477 3.46218 50.99 24.4244 3.45381 
56.9101 23.2208 19.4416 57.5702 23.7879 18.8922 56.0293 23.4708 19.582 
54.9966 23.5124 19.5553 53.9509 23.4935 19.5311 52.9338 23.4583 19.537 
51.9359 23.46 19.5371 51.0939 23.6196 19.5421 50.0499 23.4738 19.4246 
48.9184 23.8272 19.3524 48.044 23.8201 19.0985 48.5328 23.3521 18.9354 
47.2398 23.9681 19.039 46.2892 24.0729 19.0192 37.9852 23.9555 18.731 
37.9 23.3713 19.28 38.467 23.3641 19.1218 37.5841 23.4132 18.9371 
57.9676 23.8099 18.1497 58.0595 23.2077 18.4924 58.2927 23.4968 17.7988 
47.7894 23.2509 18.6992 46.7039 23.3608 18.6805 45.6459 23.5487 18.6318 
44.9069 23.4883 18.4952 44.0115 23.3303 18.3942 43.0782 23.6166 18.509 
42.0112 23.449 18.366 40.9736 23.5409 18.3349 40.1208 23.5525 18.4793 
38.7415 24.0497 18.2839 39.2632 23.6422 18.5866 37.3645 23.516 18.0588 
58.0029 23.9651 17.307 58.5243 23.4157 16.9034 37.5329 23.5053 17.1628 
[...]
CELL_DATA 13600
SCALARS scalars float
LOOKUP_TABLE default
2018 2018 2018 2018 2018 2018 2018 2018 2018 
2018 2018 2018 2018 2018 2018 2018 2018 2018 
2018 2018 2018 2018 2018 2018 2018 2018 2018 
2018 2018 2018 2018 2018 2018 2018 2018 2018 
2018 2018 2018 2018 2018 2018 2018 2018 2018 
2018 2018 2018 2018 2018 2018 2018 2018 2018 
2018 2018 2018 2018 2018 2018 2018 2018 2018 
2018 2018 2018 2018 2018 2018 2018 2018 2018 
2018 2018 2018 2018 2018 2018 2018 2018 2018 
2018 2018 2018 2018 2018 2018 2018 2018 2018 
2018 2018 2018 2018 2018 2018 2018 2018 2018 
2018 2018 2018 2018 2018 2018 2018 2018 2018 
2018 2018 2018 2018 2018 2018 2018 2018 2018 
2018 2018 2018 2018 2018 2018 2018 2018 2018 
2018 2018 2018 2018 2018 2018 2018 2018 2018 
2018 2018 2018 2018 2018 2018 2018 2018 2018 
2018 2018 2018 2018 2018 2018 2018 2018 2018 
2018 2018 2018 2018 2018 2018 2018 2018 2018 
2018 2018 2018 2018 2018 2018 2018 2018 2018 
2018 2018 2018 2018 2018 2018 2018 2018 2018 
2018 2018 2018 2018 2018 2018 2018 2018 2018 
2018 2018 2018 2018 2018 2018 2018 2018 2018 
2018 2018 2018 2018 2018 2018 2018 2018 2018 
2018 2018 2018 2018 2018 2018 2018 2018 2018 
2018 2018 2018 2018 2018 2018 2018 2018 2018 
2018 2018 2018 2018 2018 2018 2018 2018 2018 
2018 2018 2018 2018 2018 2018 2018 2018 2018 
2018 2018 2018 2018 2018 2018 2018 2018 2018 
2018 2018 2018 2018 2018 2018 2018 2018 2018 
2018 2018 2018 2018 2018 2018 2018 2018 2018 
2018 2018 2018 2018 2018 2018 2018 2018 2018 
2018 2018 2018 2018 2018 2018 2018 2018 2018 
2018 2018 2018 2018 2018 2018 2018 2018 2018 
2018 2018 2018 2018 2018 2018 2018 2018 2018 
2018 2018 2018 2018 2018 2018 2018 2018 2018 
2018 2018 2018 2018 2018 2018 2018 2018 2018 
2018 2018 2018 2018 2018 2018 2018 2018 2018 
2018 2018 2018 2018 2018 2018 2018 2018 2018 
2018 2018 2018 2018 2018 2018 2018 2018 2018 
2018 2018 2018 2018 2018 2018 2018 2018 2018 
2018 2018 2018 2018 2018 2018 2018 2018 2018 
2018 2018 2018 2018 2018 2018 2018 2018 2018 
2018 2018 2018 2018 2018 2018 2018 2018 2018 
2018 2018 2018 2018 2018 2018 2018 2018 2018 
2018 2018 2018 2018 2018 2018 2018 2018 2018 
2018 2018 2018 2018 2018 2018 2018 2018 2018 
2018 2018 2018 2018 2018 2018 2018 2018 2018 
2018 2018 2018 2018 2018 2018 2018 2018 2018 
2018 2018 2018 2018 2018 2018 2018 2018 2018 
2018 2018 2018 2018 2018 2018 2018 2018 2018 
2018 2018 2018 2018 2018 2018 2018 2018 2018 
2018 2018 2018 2018 2018 2018 2018 2018 2018 
2018 2018 2018 2018 2018 2018 2018 2018 2018 
2018 2018 2018 2018 2018 2018 2018 2018 2018 
2018 2018 2018 2018 2018 2018 2018 2018 2018 
2018 2018 2018 2018 2018 2018 2018 2018 2018 
2018 2018 2018 2018 2018 2018 2018 2018 2018 
2018 2018 2018 2018 2018 2018 2018 2018 2018 
2018 2018 2018 2018 2018 2018 2018 2018 2018 
2018 2018 2018 2018 2018 2018 2018 2018 2018 
2018 2018 2018 2018 2018 2018 2018 2018 2018 
2018 2018 2018 2018 2018 2018 2018 2018 2018 
2018 2018 2018 2018 2018 2018 2018 2018 2018 
2018 2018 2018 2018 2018 2018 2018 2018 2018 
2018 2018 2018 2018 2018 2018 2018 2018 2018 
2018 2018 2018 2018 2018 2018 2018 2018 2018 
2018 2018 2018 2018 2018 2018 2018 2018 2018 
2018 2018 2018 2018 2018 2018 2018 2018 2018 
2018 2018 2018 2018 2018 2018 2018 2018 2018 
2018 2018 2018 2018 2018 2018 2018 2018 2018 
2018 2018 2018 2018 2018 2018 2018 2018 2018 
2018 2018 2018 2018 2018 2018 2018 2018 2018 
2018 2018 2018 2018 2018 2018 2018 2018 2018 
2018 2018 2018 2018 2018 2018 2018 2018 2018 
2018 2018 2018 2018 2018 2018 2018 2018 2018 
2018 2018 2018 2018 2018 2018 2018 2018 2018 
2018 2018 2018 2018 2018 2018 2018 2018 2018 
2018 2018 2018 2018 2018 2018 2018 2018 2018 
2018 2018 2018 2018 2018 2018 2018 2018 2018 
2018 2018 2018 2018 2018 2018 2018 2018 2018 
2018 2018 2018 2018 2018 2018 2018 2018 2018 
2018 2018 2018 2018 2018 2018 2018 2018 2018 
2018 2018 2018 2018 2018 2018 2018 2018 2018 
2018 2018 2018 2018 2018 2018 2018 2018 2018 
2018 2018 2018 2018 2018 2018 2018 2018 2018 
2018 2018 2018 2018 2018 2018 2018 2018 2018 
2018 2018 2018 2018 2018 2018 2018 2018 2018 
2018 2018 2018 2018 2018 2018 2018 2018 2018 
2018 2018 2018 2018 2018 2018 2018 2018 2018 
2018 2018 2018 2018 2018 2018 2018 2018 2018 
2018 2018 2018 2018 2018 2018 2018 2018 2018 
2018 2018 2018 2018 2018 2018 2018 2018 2018 
2018 2018 2018 2018 2018 2018 2018 2018 2018 
2018 2018 2018 2018 2018 2018 2018 2018 2018 
2018 2018 2018 2018 2018 2018 2018 2018 2018 
2018 2018 2018 2018 2018 2018 2018 2018 2018 
2018 2018 2018 2018 2018 2018 2018 2018 2018 
2018 2018 2018 2018 2018 2018 2018 2018 2018 
2018 2018 2018 2018 2018 2018 2018 2018 2018 
2018 2018 2018 2018 2018 2018 2018 2018 2018 
2018 2018 2018 2018 2018 2018 2018 2018 2018 
2018 2018 2018 2018 2018 2018 2018 2018 2018 
2018 2018 2018 2018 2018 2018 2018 2018 2018 
2018 2018 2018 2018 2018 2018 2018 2018 2018 
2018 2018 2018 2018 2018 2018 2018 2018 2018 
2018 2018 2018 2018 2018 2018 2018 2018 2018 
2018 2018 2018 2018 2018 2018 2018 2018 2018 
2018 2018 2018 2018 2018 2018 2018 2018 2018 
2018 2018 2018 2018 2018 2018 2018 2018 2018 
2018 2018 2018 2018 2018 2018 2018 2018 2018 
2018 2018 2018 2018 2018 2018 2018 2018 2018 
2018 2018 2018 2018 2018 2018 2018 2018 2018 
2018 2018 2018 2018 2018 2018 2018 2018 2018 
2018 2018 2018 2018 2018 2018 2018 2018 2018 
2018 2018 2018 2018 2018 2018 2018 2018 2018 
2018 2018 2018 2018 2018 2018 2018 2018 2018 
2018 2018 2018 2018 2018 2018 2018 2018 2018 
2018 2018 2018 2018 2018 2018 2018 2018 2018 
2018 2018 2018 2018 2018 2018 2018 2018 2018 
2018 2018 2018 2018 2018 2018 2018 2018 2018 
2018 2018 2018 2018 2018 2018 2018 2018 2018 
2018 2018 2018 2018 2018 2018 2018 2018 2018 
2018 2018 2018 2018 2018 2018 2018 2018 2018 
2018 2018 2018 2018 2018 2018 2018 2018 2018 
2018 2018 2018 2018 2018 2018 2018 2018 2018 
2018 2018 2018 2018 2018 2018 2018 2018 2018 
2018 2018 2018 2018 2018 2018 2018 2018 2018 
2018 2018 2018 2018 2018 2018 2018 2018 2018 
2018 2018 2018 2018 2018 2018 2018 2018 2018 
2018 2018 2018 2018 2018 2018 2018 2018 2018 
2018 2018 2018 2018 2018 2018 2018 2018 2018 
2018 2018 2018 2018 2018 2018 2018 2018 2018 
2018 2018 2018 2018 2018 2018 2018 2018 2018 
2018 2018 2018 2018 2018 2018 2018 2018 2018 
2018 2018 2018 2018 2018 2018 2018 2018 2018 
2018 2018 2018 2018 2018 2018 2018 2018 2018 
2018 2018 2018 2018 2018 2018 2018 2018 2018 
2018 2018 2018 2018 2018 2018 2018 2018 2018 
2018 2018 2018 2018 2018 2018 2018 2018 2018 
2018 2018 2018 2018 2018 2018 2018 2018 2018 
2018 2018 2018 2018 2018 2018 2018 2018 2018 
2018 2018 2018 2018 2018 2018 2018 2018 2018 
2018 2018 2018 2018 2018 2018 2018 2018 2018 
2018 2018 2018 2018 2018 2018 2018 2018 2018 
2018 2018 2018 2018 2018 2018 2018 2018 2018 
2018 2018 2018 2018 2018 2018 2018 2018 2018 
2018 2018 2018 2018 2018 2018 2018 2018 2018 
2018 2018 2018 2018 2018 2018 2018 2018 2018 
2018 2018 2018 2018 2018 2018 2018 2018 2018 
2018 2018 2018 2018 2018 2018 2018 2018 2018 
2018 2018 2018 2018 2018 2018 2018 2018 2018 
2018 2018 2018 2018 2018 2018 2018 2018 2018 
2018 2018 2018 2018 2018 2018 2018 2018 2018 
2018 2018 2018 2018 2018 2018 2018 2018 2018 
2018 2018 2018 2018 2018 2018 2018 2018 2018 
2018 2018 2018 2018 2018 2018 2018 2018 2018 
2018 2018 2018 2018 2018 2018 2018 2018 2018 
2018 2018 2018 2018 2018 2018 2018 2018 2018 
2018 2018 2018 2018 2018 2018 2018 2018 2018 
2018 2018 2018 2018 2018 2018 2018 2018 2018 
2018 2018 2018 2018 2018 2018 2018 2018 2018 
2018 2018 2018 2018 2018 2018 2018 2018 2018 
2018 2018 2018 2018 2018 2018 2018 2018 2018 
2018 2018 2018 2018 2018 2018 2018 2018 2018 
2018 2018 2018 2018 2018 2018 2018 2018 2018 
2018 2018 2018 2018 2018 2018 2018 2018 2018 
2018 2018 2018 2018 2018 2018 2018 2018 2018 
2018 2018 2018 2018 2018 2018 2018 2018 2018 
2018 2018 2018 2018 2018 2018 2018 2018 2018 
2018 2018 2018 2018 2018 2018 2018 2018 2018 
2018 2018 2018 2018 2018 2018 2018 2018 2018 
2018 2018 2018 2018 2018 2018 2018 2018 2018 
2018 2018 2018 2018 2018 2018 2018 2018 2018 
2018 2018 2018 2018 2018 2018 2018 2018 2018 
2018 2018 2018 2018 2018 2018 2018 2018 2018 
2018 2018 2018 2018 2018 2018 2018 2018 2018 
2018 2018 2018 2018 2018 2018 2018 2018 2018 
2018 2018 2018 2018 2018 2018 2018 2018 2018 
2018 2018 2018 2018 2018 2018 2018 2018 2018 
2018 2018 2018 2018 2018 2018 2018 2018 2018 
2018 2018 2018 2018 2018 2018 2018 2018 2018 
2018 2018 2018 2018 2018 2018 2018 2018 2018 
2018 2018 2018 2018 2018 2018 2018 2018 2018 
2018 2018 2018 2018 2018 2018 2018 2018 2018 
2018 2018 2018 2018 2018 2018 2018 2018 2018 
2018 2018 2018 2018 2018 2018 2018 2018 2018 
2018 2018 2018 2018 2018 2018 2018 2018 2018 
2018 2018 2018 2018 2018 2018 2018 2018 2018 
2018 2018 2018 2018 2018 2018 2018 2018 2018 
2018 2018 2018 2018 2018 2018 2018 2018 2018 
2018 2018 2018 2018 2018 2018 2018 2018 2018 
2018 2018 2018 2018 2018 2018 2018 2018 2018 
2018 2018 2018 2018 2018 2018 2018 2018 2018 
2018 2018 2018 2018 2018 2018 2018 2018 2018 
2018 2018 2018 2018 2018 2018 2018 2018 2018 
2018 2018 2018 2018 2018 2018 2018 2018 2018 
2018 2018 2018 2018 2018 2018 2018 2018 2018 
2018 2018 2018 2018 2018 2018 2018 2018 2018 
2018 2018 2018 2018 2018 2018 2018 2018 2018 
2018 2018 2018 2018 2018 2018 2018 2018 2018 
2018 2018 2018 2018 2018 2018 2018 2018 2018 
2018 2018 2018 2018 2018 2018 2018 2018 2018 
2018 2018 2018 2018 2018 2018 2018 2018 2018 
2018 2018 2018 2018 2018 2018 2018 2018 2018 
2018 2018 2018 2018 2018 2018 2018 2018 2018 
2018 2018 2018 2018 2018 2018 2018 2018 2018 
2018 2018 2018 2018 2018 2018 2018 2018 2018 
2018 2018 2018 2018 2018 2018 2018 2018 2018 
2018 2018 2018 2018 2018 2018 2018 2018 2018 
2018 2018 2018 2018 2018 2018 2018 2018 2018 
2018 2018 2018 2018 2018 2018 2018 2018 2018 
2018 2018 2018 2018 2018 2018 2018 2018 2018 
2018 2018 2018 2018 2018 2018 2018 2018 2018 
2018 2018 2018 2018 2018 2018 2018 2018 2018 
2018 2018 2018 2018 2018 2018 2018 2018 2018 
2018 2018 2018 2018 2018 2018 2018 2018 2018 
2018 2018 2018 2018 2018 2018 2018 2018 2018 
2018 2018 2018 2018 2018 2018 2018 2018 2018 
2018 2018 2018 2018 2018 2018 2018 2018 2018 
2018 2018 2018 2018 2018 2018 2018 2018 2018 
2018 2018 2018 2018 2018 2018 2018 2018 2018 
2018 2018 2018 2018 2018 2018 2018 2018 2018 
2018 2018 2018 2018 2018 2018 2018 2018 2018 
2018 2018 2018 2018 2018 2018 2018 2018 2018 
2018 2018 2018 2018 2018 2018 2018 2018 2018 
2018 2018 2018 2018 2018 2018 2018 2018 2018 
2018 2018 2018 2018 2018 2018 2018 2018 2018 
2018 2018 2018 2018 2018 2018 2018 2018 2018 
2018 2018 2018 2018 2018 2018 2018 2018 2018 
2018 2018 2018 2018 2018 2018 2018 2018 2018 
2018 2018 2018 2018 2018 2018 2018 2018 2018 
2018 2018 2018 2018 2018 2018 2018 2018 2018 
2018 2018 2018 2018 2018 2018 2018 2018 2018 
2018 2018 2018 2018 2018 2018 2018 2018 2018 
2018 2018 2018 2018 2018 2018 2018 2018 2018 
2018 2018 2018 2018 2018 2018 2018 2018 2018 
2018 2018 2018 2018 2018 2018 2018 2018 2018 
2018 2018 2018 2018 2018 2018 2018 2018 2018 
2018 2018 2018 2018 2018 2018 2018 2018 2018 
2018 2018 2018 2018 2018 2018 2018 2018 2018 
2018 2018 2018 2018 2018 2018 2018 2018 2018 
2018 2018 2018 2018 2018 2018 2018 2018 2018 
2018 2018 2018 2018 2018 2018 2018 2018 2018 
2018 2018 2018 2018 2018 2018 2018 2018 2018 
2018 2018 2018 2018 2018 2018 2018 2018 2018 
2018 2018 2018 2018 2018 2018 2018 2018 2018 
2018 2018 2018 2018 2018 2018 2018 2018 2018 
2018 2018 2018 2018 2018 2018 2018 2018 2018 
2018 2018 2018 2018 2018 2018 2018 2018 2018 
2018 2018 2018 2018 2018 2018 2018 2018 2018 
2018 2018 2018 2018 2018 2018 2018 2018 2018 
2018 2018 2018 2018 2018 2018 2018 2018 2018 
2018 2018 2018 2018 2018 2018 2018 2018 2018 
2018 2018 2018 2018 2018 2018 2018 2018 2018 
2018 2018 2018 2018 2018 2018 2018 2018 2018 
2018 2018 2018 2018 2018 2018 2018 2018 2018 
2018 2018 2018 2018 2018 2018 2018 2018 2018 
2018 2018 2018 2018 2018 2018 2018 2018 2018 
2018 2018 2018 2018 2018 2018 2018 2018 2018 
2018 2018 2018 2018 2018 2018 2018 2018 2018 
2018 2018 2018 2018 2018 2018 2018 2018 2018 
2018 2018 2018 2018 2018 2018 2018 2018 2018 
2018 2018 2018 2018 2018 2018 2018 2018 2018 
2018 2018 2018 2018 2018 2018 2018 2018 2018 
2018 2018 2018 2018 2018 2018 2018 2018 2018 
2018 2018 2018 2018 2018 2018 2018 2018 2018 
2018 2018 2018 2018 2018 2018 2018 2018 2018 
2018 2018 2018 2018 2018 2018 2018 2018 2018 
2018 2018 2018 2018 2018 2018 2018 2018 2018 
2018 2018 2018 2018 2018 2018 2018 2018 2018 
2018 2018 2018 2018 2018 2018 2018 2018 2018 
2018 2018 2018 2018 2018 2018 2018 2018 2018 
2018 2018 2018 2018 2018 2018 2018 2018 2018 
2018 2018 2018 2018 2018 2018 2018 2018 2018 
2018 2018 2018 2018 2018 2018 2018 2018 2018 
2018 2018 2018 2018 2018 2018 2018 2018 2018 
2018 2018 2018 2018 2018 2018 2018 2018 2018 
2018 2018 2018 2018 2018 2018 2018 2018 2018 
2018 2018 2018 2018 2018 2018 2018 2018 2018 
2018 2018 2018 2018 2018 2018 2018 2018 2018 
2018 2018 2018 2018 2018 2018 2018 2018 2018 
2018 2018 2018 2018 2018 2018 2018 2018 2018 
2018 2018 2018 2018 2018 2018 2018 2018 2018 
2018 2018 2018 2018 2018 2018 2018 2018 2018 
2018 2018 2018 2018 2018 2018 2018 2018 2018 
2018 2018 2018 2018 2018 2018 2018 2018 2018 
2018 2018 2018 2018 2018 2018 2018 2018 2018 
2018 2018 2018 2018 2018 2018 2018 2018 2018 
2018 2018 2018 2018 2018 2018 2018 2018 2018 
2018 2018 2018 2018 2018 2018 2018 2018 2018 
2018 2018 2018 2018 2018 2018 2018 2018 2018 
2018 2018 2018 2018 2018 2018 2018 2018 2018 
2018 2018 2018 2018 2018 2018 2018 2018 2018 
2018 2018 2018 2018 2018 2018 2018 2018 2018 
2018 2018 2018 2018 2018 2018 2018 2018 2018 
2018 2018 2018 2018 2018 2018 2018 2018 2018 
2018 2018 2018 2018 2018 2018 2018 2018 2018 
2018 2018 2018 2018 2018 2018 2018 2018 2018 
2018 2018 2018 2018 2018 2018 2018 2018 2018 
2018 2018 2018 2018 2018 2018 2018 2018 2018 
2018 2018 2018 2018 2018 2018 2018 2018 2018 
2018 2018 2018 2018 2018 2018 2018 2018 2018 
2018 2018 2018 2018 2018 2018 2018 2018 2018 
2018 2018 2018 2018 2018 2018 2018 2018 2018 
2018 2018 2018 2018 2018 2018 2018 2018 2018 
2018 2018 2018 2018 2018 2018 2018 2018 2018 
2018 2018 2018 2018 2018 2018 2018 2018 2018 
2018 2018 2018 2018 2018 2018 2018 2018 2018 
2018 2018 2018 2018 2018 2018 2018 2018 2018 
2018 2018 2018 2018 2018 2018 2018 2018 2018 
2018 2018 2018 2018 2018 2018 2018 2018 2018 
2018 2018 2018 2018 2018 2018 2018 2018 2018 
2018 2018 2018 2018 2018 2018 2018 2018 2018 
2018 2018 2018 2018 2018 2018 2018 2018 2018 
2018 2018 2018 2018 2018 2018 2018 2018 2018 
2018 2018 2018 2018 2018 2018 2018 2018 2018 
2018 2018 2018 2018 2018 2018 2018 2018 2018 
2018 2018 2018 2018 2018 2018 2018 2018 2018 
2018 2018 2018 2018 2018 2018 2018 2018 2018 
2018 2018 2018 2018 2018 2018 2018 2018 2018 
2018 2018 2018 2018 2018 2018 2018 2018 2018 
2018 2018 2018 2018 2018 2018 2018 2018 2018 
2018 2018 2018 2018 2018 2018 2018 2018 2018 
2018 2018 2018 2018 2018 2018 2018 2018 2018 
2018 2018 2018 2018 2018 2018 2018 2018 2018 
2018 2018 2018 2018 2018 2018 2018 2018 2018 
2018 2018 2018 2018 2018 2018 2018 2018 2018 
2018 2018 2018 2018 2018 2018 2018 2018 2018 
2018 2018 2018 2018 2018 2018 2018 2018 2018 
2018 2018 2018 2018 2018 2018 2018 2018 2018 
2018 2018 2018 2018 2018 2018 2018 2018 2018 
2018 2018 2018 2018 2018 2018 2018 2018 2018 
2018 2018 2018 2018 2018 2018 2018 2018 2018 
2018 2018 2018 2018 2018 2018 2018 2018 2018 
2018 2018 2018 2018 2018 2018 2018 2018 2018 
2018 2018 2018 2018 2018 2018 2018 2018 2018 
2018 2018 2018 2018 2018 2018 2018 2018 2018 
2018 2018 2018 2018 2018 2018 2018 2018 2018 
2018 2018 2018 2018 2018 2018 2018 2018 2018 
2018 2018 2018 2018 2018 2018 2018 2018 2018 
2018 2018 2018 2018 2018 2018 2018 2018 2018 
2018 2018 2018 2018 2018 2018 2018 2018 2018 
2018 2018 2018 2018 2018 2018 2018 2018 2018 
2018 2018 2018 2018 2018 2018 2018 2018 2018 
2018 2018 2018 2018 2018 2018 2018 2018 2018 
2018 2018 2018 2018 2018 2018 2018 2018 2018 
2018 2018 2018 2018 2018 2018 2018 2018 2018 
2018 2018 2018 2018 2018 2018 2018 2018 2018 
2018 2018 2018 2018 2018 2018 2018 2018 2018 
2018 2018 2018 2018 2018 2018 2018 2018 2018 
2018 2018 2018 2018 2018 2018 2018 2018 2018 
2018 2018 2018 2018 2018 2018 2018 2018 2018 
2018 2018 2018 2018 2018 2018 2018 2018 2018 
2018 2018 2018 2018 2018 2018 2018 2018 2018 
2018 2018 2018 2018 2018 2018 2018 2018 2018 
2018 2018 2018 2018 2018 2018 2018 2018 2018 
2018 2018 2018 2018 2018 2018 2018 2018 2018 
2018 2018 2018 2018 2018 2018 2018 2018 2018 
2018 2018 2018 2018 2018 2018 2018 2018 2018 
2018 2018 2018 2018 2018 2018 2018 2018 2018 
2018 2018 2018 2018 2018 2018 2018 2018 2018 
2018 2018 2018 2018 2018 2018 2018 2018 2018 
2018 2018 2018 2018 2018 2018 2018 2018 2018 
2018 2018 2018 2018 2018 2018 2018 2018 2018 
2018 2018 2018 2018 2018 2018 2018 2018 2018 
2018 2018 2018 2018 2018 2018 2018 2018 2018 
2018 2018 2018 2018 2018 2018 2018 2018 2018 
2018 2018 2018 2018 2018 2018 2018 2018 2018 
2018 2018 2018 2018 2018 2018 2018 2018 2018 
2018 2018 2018 2018 2018 2018 2018 2018 2018 
2018 2018 2018 2018 2018 2018 2018 2018 2018 
2018 2018 2018 2018 2018 2018 2018 2018 2018 
2018 2018 2018 2018 2018 2018 2018 2018 2018 
2018 2018 2018 2018 2018 2018 2018 2018 2018 
2018 2018 2018 2018 2018 2018 2018 2018 2018 
2018 2018 2018 2018 2018 2018 2018 2018 2018 
2018 2018 2018 2018 2018 2018 2018 2018 2018 
2018 2018 2018 2018 2018 2018 2018 2018 2018 
2018 2018 2018 2018 2018 2018 2018 2018 2018 
2018 2018 2018 2018 2018 2018 2018 2018 2018 
2018 2018 2018 2018 2018 2018 2018 2018 2018 
2018 2018 2018 2018 2018 2018 2018 2018 2018 
2018 2018 2018 2018 2018 2018 2018 2018 2018 
2018 2018 2018 2018 2018 2018 2018 2018 2018 
2018 2018 2018 2018 2018 2018 2018 2018 2018 
2018 2018 2018 2018 2018 2018 2018 2018 2018 
2018 2018 2018 2018 2018 2018 2018 2018 2018 
2018 2018 2018 2018 2018 2018 2018 2018 2018 
2018 2018 2018 2018 2018 2018 2018 2018 2018 
2018 2018 2018 2018 2018 2018 2018 2018 2018 
2018 2018 2018 2018 2018 2018 2018 2018 2018 
2018 2018 2018 2018 2018 2018 2018 2018 2018 
2018 2018 2018 2018 2018 2018 2018 2018 2018 
2018 2018 2018 2018 2018 2018 2018 2018 2018 
2018 2018 2018 2018 2018 2018 2018 2018 2018 
2018 2018 2018 2018 2018 2018 2018 2018 2018 
2018 2018 2018 2018 2018 2018 2018 2018 2018 
2018 2018 2018 2018 2018 2018 2018 2018 2018 
2018 2018 2018 2018 2018 2018 2018 2018 2018 
2018 2018 2018 2018 2018 2018 2018 2018 2018 
2018 2018 2018 2018 2018 2018 2018 2018 2018 
2018 2018 2018 2018 2018 2018 2018 2018 2018 
2018 2018 2018 2018 2018 2018 2018 2018 2018 
2018 2018 2018 2018 2018 2018 2018 2018 2018 
2018 2018 2018 2018 2018 2018 2018 2018 2018 
2018 2018 2018 2018 2018 2018 2018 2018 2018 
2018 2018 2018 2018 2018 2018 2018 2018 2018 
2018 2018 2018 2018 2018 2018 2018 2018 2018 
2018 2018 2018 2018 2018 2018 2018 2018 2018 
2018 2018 2018 2018 2018 2018 2018 2018 2018 
2018 2018 2018 2018 2018 2018 2018 2018 2018 
2018 2018 2018 2018 2018 2018 2018 2018 2018 
2018 2018 2018 2018 2018 2018 2018 2018 2018 
2018 2018 2018 2018 2018 2018 2018 2018 2018 
2018 2018 2018 2018 2018 2018 2018 2018 2018 
2018 2018 2018 2018 2018 2018 2018 2018 2018 
2018 2018 2018 2018 2018 2018 2018 2018 2018 
2018 2018 2018 2018 2018 2018 2018 2018 2018 
2018 2018 2018 2018 2018 2018 2018 2018 2018 
2018 2018 2018 2018 2018 2018 2018 2018 2018 
2018 2018 2018 2018 2018 2018 2018 2018 2018 
2018 2018 2018 2018 2018 2018 2018 2018 2018 
2018 2018 2018 2018 2018 2018 2018 2018 2018 
2018 2018 2018 2018 2018 2018 2018 2018 2018 
2018 2018 2018 2018 2018 2018 2018 2018 2018 
2018 2018 2018 2018 2018 2018 2018 2018 2018 
2018 2018 2018 2018 2018 2018 2018 2018 2018 
2018 2018 2018 2018 2018 2018 2018 2018 2018 
2018 2018 2018 2018 2018 2018 2018 2018 2018 
2018 2018 2018 2018 2018 2018 2018 2018 2018 
2018 2018 2018 2018 2018 2018 2018 2018 2018 
2018 2018 2018 2018 2018 2018 2018 2018 2018 
2018 2018 2018 2018 2018 2018 2018 2018 2018 