# vtk DataFile Version 4.0
vtk output
ASCII
DATASET POLYDATA
POINTS 28934 float
-12.1271 70.7739 12.6558 -11.871 70.4531 13.2561 -11.423 70.577 12.8557 
-12.4574 70.4321 13.1346 -11.1822 70.8626 11.9647 -10.8106 70.4501 12.4628 
-10.3772 70.58 11.8707 -12.1423 71.0235 11.8537 -13.0746 70.325 12.5881 
-13.0428 70.846 11.8799 -13.5671 70.3455 12.0547 -10.3142 70.8527 11.0425 
-9.95322 70.5284 11.4921 -9.56941 70.4652 10.8208 -11.1638 71.0298 10.8435 
-11.9995 71.0471 11.0033 -13.0143 71.051 10.9913 -13.8739 70.6021 11.6624 
-14.1295 70.936 10.9741 -15.2326 70.829 10.7168 -14.6708 70.5163 11.4436 
-15.4246 70.4496 11.174 -10.0761 70.8879 9.95507 -9.44316 70.5258 9.66739 
-10.9671 71.0345 9.96042 -11.9809 71.0346 9.95156 -13.0065 71.0282 9.96443 
-14.049 71.0493 9.96184 -15.0832 71.0404 9.93569 -15.8791 70.6036 10.5825 
-15.9303 70.8226 9.8851 -16.3745 70.4657 10.0486 -9.97975 70.7697 9.1708 
-9.66092 70.4563 8.84885 -10.7322 70.8903 9.08977 -11.7497 70.8922 9.06533 
-12.7912 70.8725 9.06141 -13.8116 70.8851 9.05837 -14.8297 70.9227 9.06336 
-15.7587 70.8328 9.05468 -16.5604 70.3218 9.02586 -10.3391 70.5167 8.49166 
-11.2897 70.5191 8.40743 -12.306 70.5149 8.42589 -13.3118 70.5211 8.41188 
-14.3284 70.5441 8.39769 -15.3182 70.5454 8.38469 -16.0538 70.3908 8.39871 
-14.9323 70.6749 3.93707 -14.8656 70.4597 4.3322 -14.7238 70.2186 3.97767 
-15.1938 70.5336 4.1258 -17.017 70.6262 3.96945 -16.8486 70.5063 4.22478 
-16.6055 70.3842 3.87893 -17.2706 70.4946 4.12884 -15.2295 70.2946 3.73234 
-17.0372 70.274 3.73521 -18.0039 70.6292 3.1794 -17.8757 70.3293 2.9538 
-18.0243 70.7086 2.90651 -18.2863 70.3655 3.06855 -18.0961 70.3538 2.70675 
-11.1459 69.7571 15.6827 -10.8276 69.4266 16.2918 -10.4184 69.5589 15.8483 
-11.4273 69.4304 16.1929 -10.3563 69.8126 15.0431 -9.83957 69.4253 15.4242 
-9.5783 69.4944 14.6223 -11.2128 69.9978 14.8358 -11.8802 69.5619 15.6287 
-12.1058 69.8154 14.8574 -12.4845 69.4459 15.1705 -10.162 69.8553 13.9973 
-9.52249 69.4885 13.6606 -10.8744 70.0268 14.2038 -11.9811 70.122 13.8418 
-12.9137 69.5427 14.5376 -12.9283 69.7917 13.8762 -13.4079 69.4046 13.9854 
-10.0492 69.8351 13.1255 -9.53725 69.3336 12.6738 -10.9481 70.1672 13.2337 
-12.8964 70.0897 13.2144 -13.5479 69.5775 13.1307 -9.98723 70.103 12.0869 
-9.46017 69.5006 11.9072 -14.3081 70.0582 11.9682 -14.0221 69.5688 12.4228 
-15.2912 69.9706 11.8081 -14.9954 69.3106 12.302 -16.2181 69.7801 11.7267 
-15.9131 69.2922 12.2459 -16.5619 69.3171 12.0815 -9.20169 69.8727 11.1956 
-9.07426 69.1745 11.4267 -8.74094 69.5113 10.7742 -16.1416 70.1989 10.9511 
-16.8985 69.5632 11.691 -17.1278 69.9146 10.9655 -18.2293 69.7946 10.698 
-17.6636 69.4962 11.4507 -18.4371 69.4235 11.1359 -8.85847 70.0216 10.0867 
-8.35125 69.4719 10.0567 -17.0314 70.157 9.84613 -18.0335 70.026 9.90878 
-18.9181 69.5634 10.53 -18.9368 69.8228 9.84554 -19.4198 69.4602 10.0073 
-8.30547 69.8464 9.01399 -7.97749 69.5099 9.45952 -7.60731 69.4642 8.79086 
-9.0997 70.1721 8.92116 -17.1443 70.0054 9.01849 -17.7676 69.8971 9.05518 
-18.7222 69.8171 9.05934 -19.5131 69.5199 9.23577 -7.99347 69.7826 8.13621 
-7.57178 69.5408 8.02428 -8.8989 69.9185 7.91979 -9.79285 70.1596 8.11212 
-10.7462 70.0258 7.74968 -11.7816 70.0063 7.90555 -12.7543 70.0124 7.93876 
-13.7432 70.0339 7.91913 -14.7608 70.0437 7.88521 -15.7078 69.9715 7.88325 
-16.4617 69.7718 8.08288 -17.2866 69.4521 8.4149 -18.3295 69.3545 8.53352 
-19.2847 69.252 8.6055 -8.03446 69.4143 7.49312 -9.07549 69.6361 7.19758 
-9.43664 69.396 6.80339 -9.87835 69.7925 7.23675 -10.6028 69.5924 7.06449 
-11.3305 69.5235 7.3225 -12.2717 69.3169 7.44596 -13.241 69.3645 7.58734 
-14.2353 69.3935 7.56488 -15.2502 69.3718 7.52677 -16.1908 69.2309 7.59395 
-10.1338 69.1853 6.631 -15.2764 70.0394 4.82901 -14.9213 69.221 5.3575 
-14.4825 69.7539 4.62876 -16.1602 69.911 5.04523 -15.9763 69.3894 5.41844 
-17.1433 70.0921 4.74867 -16.9903 69.3963 5.42248 -18.2271 69.8538 4.73322 
-17.9558 69.3988 5.32797 -18.6086 69.3601 5.10258 -14.3518 69.4735 3.94745 
-15.9964 70.2457 4.22851 -17.8826 70.1516 3.72838 -19.0854 69.3524 4.6286 
-18.7918 69.8016 4.11515 -19.4645 69.3821 4.04499 -15.0237 69.3732 3.54542 
-16.188 69.6794 3.55161 -17.1274 69.6129 3.43358 -17.6187 69.331 2.99949 
-19.0442 69.4287 3.45238 -18.426 69.7519 2.80992 -18.0524 69.5445 2.65287 
-10.1648 68.8266 17.7619 -9.9159 68.4652 18.36 -9.38872 68.6056 17.8544 
-11.1784 68.7978 17.7555 -10.9142 68.3131 18.5315 -11.5627 68.3726 18.1275 
-8.30877 68.7626 16.8136 -7.91658 68.4094 17.3074 -7.54357 68.4979 16.6292 
-9.26644 68.8755 17.0643 -8.66468 68.5078 17.5603 -10.0249 69.0077 17.0261 
-10.9639 69.1033 16.8658 -11.8193 68.5762 17.6143 -12.0493 68.8236 16.8842 
-12.3781 68.4458 17.1836 -8.00507 68.8655 15.8344 -7.28827 68.5588 15.8795 
-8.85625 68.9832 16.179 -9.91759 69.1622 16.2305 -12.1666 69.1756 15.9616 
-12.8306 68.5396 16.5862 -13.1147 68.7989 15.845 -13.4511 68.4363 16.1415 
-7.33045 68.7376 15.047 -6.81726 68.4087 15.3959 -6.75604 68.4257 14.7785 
-8.15436 68.9849 14.8252 -9.01468 69.1273 15.2574 -13.1895 69.1482 14.8734 
-13.8959 68.5443 15.5372 -13.9291 68.7607 14.8569 -14.3773 68.4144 15.0249 
-7.18273 68.5647 14.3398 -7.57704 68.4563 13.7302 -7.96678 68.8255 14.0604 
-8.85294 69.1516 14.2118 -13.9529 68.9411 13.7943 -14.5285 68.4202 14.1553 
-8.16916 68.5647 13.3232 -8.48381 68.3309 12.8546 -8.85944 68.9299 13.2665 
-14.1773 68.9433 12.8957 -14.6194 68.4112 13.204 -18.1221 68.737 12.6767 
-17.9821 68.4436 13.2813 -17.5205 68.4655 12.9841 -18.4032 68.4014 13.1855 
-9.02431 68.4082 12.5734 -9.35216 68.5848 12.0749 -14.8065 68.6785 12.607 
-15.7115 68.5521 12.5504 -17.3109 69.0515 12.174 -16.6647 68.6137 12.5557 
-18.2197 69.1097 11.7937 -18.876 68.5475 12.7125 -19.1562 68.8614 11.966 
-20.252 68.771 11.7157 -19.6718 68.4907 12.4643 -20.4652 68.4341 12.141 
-9.09271 68.2379 11.4962 -8.55941 68.7883 10.8104 -19.1755 69.1862 10.9245 
-20.0813 68.991 10.9277 -20.9416 68.5761 11.5479 -20.9438 68.7962 10.896 
-21.4353 68.4554 11.0501 -7.88688 69.0028 9.87596 -7.88339 68.1707 10.4364 
-7.43514 68.5335 9.86102 -19.9358 69.1705 9.92108 -20.7269 68.8323 9.87154 
-21.4882 68.507 10.2577 -7.18943 68.8577 9.15075 -6.85088 68.4235 9.41012 
-6.5339 68.4952 8.6347 -20.0709 69.0033 9.02052 -20.6846 68.3469 8.85544 
-21.2249 68.433 9.50969 -7.11313 69.0218 8.14374 -6.54791 68.5234 7.99301 
-16.8563 69.0577 7.83975 -17.4217 68.6211 7.97725 -18.1021 68.6163 8.20568 
-19.0289 68.6149 8.2546 -19.9027 68.5054 8.38446 -6.97865 68.5356 7.40503 
-7.89974 68.8854 6.97562 -7.42927 68.3664 6.85313 -8.68264 69.1483 6.87418 
-10.9393 69.1932 6.81336 -11.6787 68.9356 6.91224 -12.3185 68.5708 7.02566 
-13.0098 68.3841 7.34961 -13.9741 68.5112 7.46746 -14.9863 68.5248 7.42163 
-16.0084 68.4781 7.40873 -17.048 68.3435 7.58824 -8.17445 68.3112 6.61537 
-9.26549 68.5947 6.52698 -10.1545 68.3645 6.41021 -11.0893 68.4907 6.51109 
-11.9758 68.2724 6.67585 -13.2443 68.8476 4.89252 -13.1798 68.4743 5.16855 
-12.6826 68.4776 4.65765 -13.9962 69.1471 5.02689 -14.1261 68.48 5.34259 
-15.1767 68.3465 5.53205 -16.0015 68.5191 5.5341 -17.0121 68.5212 5.52839 
-18.0181 68.4924 5.52521 -19.0189 69.0033 5.0346 -18.902 68.5466 5.34846 
-19.5405 68.5186 4.99248 -12.898 68.7384 4.22349 -12.6464 68.2607 3.98366 
-13.6784 69.0488 4.23417 -20.1343 68.997 3.89328 -19.9227 68.8123 4.46699 
-20.8628 68.7164 3.82659 -20.7479 68.5624 4.36711 -21.3724 68.2973 4.11382 
-13.2554 68.368 3.66618 -14.1663 68.7076 3.57129 -15.0232 68.3487 3.28095 
-16.0187 68.6068 3.26951 -16.9286 68.8098 3.19218 -17.3955 68.3499 2.80781 
-18.5428 68.642 3.01378 -19.2166 68.31 3.51824 -20.2007 68.5125 3.52284 
-21.0835 68.3082 3.63012 -17.9152 68.3303 2.64416 -9.13468 67.7868 18.8354 
-9.12727 67.3657 19.2484 -8.48825 67.3686 18.9908 -10.1434 68.0047 18.8953 
-9.91815 67.23 19.4472 -10.9608 67.914 19.0103 -10.983 67.3816 19.2799 
-11.5588 67.5016 18.9841 -6.20269 67.7976 17.7412 -5.89577 67.435 18.3124 
-5.40999 67.5738 17.8326 -7.20123 67.813 17.9763 -6.75433 67.4829 18.4605 
-8.16275 67.9927 18.0438 -7.69739 67.4913 18.5483 -9.18978 68.2458 18.2661 
-12.3268 68.0784 17.8503 -12.0396 67.6193 18.5261 -13.2474 67.8011 17.7337 
-12.9544 67.375 18.2993 -13.6332 67.3284 18.1003 -5.31057 67.8118 17.0121 
-4.96087 67.5264 17.4906 -4.56637 67.4634 16.7867 -6.14156 67.9874 16.8463 
-7.08594 68.1029 17.2476 -13.125 68.1946 16.9303 -14.1092 67.3458 17.6298 
-14.0956 67.8646 16.8712 -14.6195 67.4012 17.0893 -5.0988 67.8657 15.9293 
-4.42927 67.5429 15.6595 -5.80845 67.9991 16.1451 -6.71225 68.1914 16.153 
-14.1277 68.195 15.895 -15.0815 67.3657 16.6085 -14.8643 67.8244 15.909 
-15.4935 67.3676 15.9848 -5.11501 67.8128 14.9807 -4.53826 67.5365 15.0175 
-6.1221 68.1058 15.1016 -14.8947 67.9716 14.8252 -15.4716 67.4809 15.2028 
-4.89262 67.4272 14.4333 -5.5223 67.526 13.9085 -5.96512 67.8556 14.0407 
-6.88923 68.203 13.9688 -15.2186 67.8936 13.603 -15.5643 67.4338 14.2158 
-18.1404 67.9689 13.6941 -17.9081 67.3966 14.3162 -17.4298 67.4933 13.7991 
-19.2736 67.8655 13.8692 -18.7388 67.4932 14.5024 -20.1882 67.7757 13.7303 
-19.8724 67.3133 14.5371 -20.5287 67.3727 14.0906 -5.90784 67.4323 13.4041 
-6.43783 67.4059 12.8208 -6.78906 67.8323 13.169 -7.69658 68.0634 13.0622 
-15.2797 68.1378 12.8854 -15.9275 67.4452 13.5242 -16.1254 67.8921 13.0056 
-17.1394 67.919 13.2081 -16.6843 67.3924 13.5025 -19.0565 68.207 13.1767 
-20.0924 68.1143 12.9346 -20.8247 67.5641 13.5812 -21.0649 67.8212 12.8579 
-21.421 67.4525 13.1699 -7.20225 67.277 12.5904 -8.36534 67.5201 12.5363 
-9.11458 67.6547 12.3108 -9.33926 67.4577 11.978 -12.2615 67.7991 11.6784 
-11.6752 67.444 11.9084 -11.9007 67.3976 12.3888 -12.4043 67.4705 12.122 
-21.1829 68.1731 11.9022 -21.8649 67.5528 12.5675 -21.9406 67.7785 11.8884 
-22.4197 67.4166 12.0681 -8.96241 67.1804 11.4762 -8.53702 67.8107 10.9956 
-12.0791 68.0019 10.9396 -11.593 67.4751 10.9634 -13.0529 67.3509 11.5547 
-13.0377 67.9034 10.8065 -13.6149 67.3477 11.0115 -21.9722 68.0159 10.8476 
-22.5999 67.4801 11.2258 -6.10554 67.8296 9.8503 -5.94577 67.167 10.3305 
[...]
CELL_DATA 57920
SCALARS scalars float
LOOKUP_TABLE default
1028 1028 1028 1028 1028 1028 1028 1028 1028 
1028 1028 1028 1028 1028 1028 1028 1028 1028 
1028 1028 1028 1028 1028 1028 1028 1028 1028 
1028 1028 1028 1028 1028 1028 1028 1028 1028 
1028 1028 1028 1028 1028 1028 1028 1028 1028 
1028 1028 1028 1028 1028 1028 1028 1028 1028 
1028 1028 1028 1028 1028 1028 1028 1028 1028 
1028 1028 1028 1028 1028 1028 1028 1028 1028 
1028 1028 1028 1028 1028 1028 1028 1028 1028 
1028 1028 1028 1028 1028 1028 1028 1028 1028 
1028 1028 1028 1028 1028 1028 1028 1028 1028 
1028 1028 1028 1028 1028 1028 1028 1028 1028 
1028 1028 1028 1028 1028 1028 1028 1028 1028 
1028 1028 1028 1028 1028 1028 1028 1028 1028 
1028 1028 1028 1028 1028 1028 1028 1028 1028 
1028 1028 1028 1028 1028 1028 1028 1028 1028 
1028 1028 1028 1028 1028 1028 1028 1028 1028 
1028 1028 1028 1028 1028 1028 1028 1028 1028 
1028 1028 1028 1028 1028 1028 1028 1028 1028 
1028 1028 1028 1028 1028 1028 1028 1028 1028 
1028 1028 1028 1028 1028 1028 1028 1028 1028 
1028 1028 1028 1028 1028 1028 1028 1028 1028 
1028 1028 1028 1028 1028 1028 1028 1028 1028 
1028 1028 1028 1028 1028 1028 1028 1028 1028 
1028 1028 1028 1028 1028 1028 1028 1028 1028 
1028 1028 1028 1028 1028 1028 1028 1028 1028 
1028 1028 1028 1028 1028 1028 1028 1028 1028 
1028 1028 1028 1028 1028 1028 1028 1028 1028 
1028 1028 1028 1028 1028 1028 1028 1028 1028 
1028 1028 1028 1028 1028 1028 1028 1028 1028 
1028 1028 1028 1028 1028 1028 1028 1028 1028 
1028 1028 1028 1028 1028 1028 1028 1028 1028 
1028 1028 1028 1028 1028 1028 1028 1028 1028 
1028 1028 1028 1028 1028 1028 1028 1028 1028 
1028 1028 1028 1028 1028 1028 1028 1028 1028 
1028 1028 1028 1028 1028 1028 1028 1028 1028 
1028 1028 1028 1028 1028 1028 1028 1028 1028 
1028 1028 1028 1028 1028 1028 1028 1028 1028 
1028 1028 1028 1028 1028 1028 1028 1028 1028 
1028 1028 1028 1028 1028 1028 1028 1028 1028 
1028 1028 1028 1028 1028 1028 1028 1028 1028 
1028 1028 1028 1028 1028 1028 1028 1028 1028 
1028 1028 1028 1028 1028 1028 1028 1028 1028 
1028 1028 1028 1028 1028 1028 1028 1028 1028 
1028 1028 1028 1028 1028 1028 1028 1028 1028 
1028 1028 1028 1028 1028 1028 1028 1028 1028 
1028 1028 1028 1028 1028 1028 1028 1028 1028 
1028 1028 1028 1028 1028 1028 1028 1028 1028 
1028 1028 1028 1028 1028 1028 1028 1028 1028 
1028 1028 1028 1028 1028 1028 1028 1028 1028 
1028 1028 1028 1028 1028 1028 1028 1028 1028 
1028 1028 1028 1028 1028 1028 1028 1028 1028 
1028 1028 1028 1028 1028 1028 1028 1028 1028 
1028 1028 1028 1028 1028 1028 1028 1028 1028 
1028 1028 1028 1028 1028 1028 1028 1028 1028 
1028 1028 1028 1028 1028 1028 1028 1028 1028 
1028 1028 1028 1028 1028 1028 1028 1028 1028 
1028 1028 1028 1028 1028 1028 1028 1028 1028 
1028 1028 1028 1028 1028 1028 1028 1028 1028 
1028 1028 1028 1028 1028 1028 1028 1028 1028 
1028 1028 1028 1028 1028 1028 1028 1028 1028 
1028 1028 1028 1028 1028 1028 1028 1028 1028 
1028 1028 1028 1028 1028 1028 1028 1028 1028 
1028 1028 1028 1028 1028 1028 1028 1028 1028 
1028 1028 1028 1028 1028 1028 1028 1028 1028 
1028 1028 1028 1028 1028 1028 1028 1028 1028 
1028 1028 1028 1028 1028 1028 1028 1028 1028 
1028 1028 1028 1028 1028 1028 1028 1028 1028 
1028 1028 1028 1028 1028 1028 1028 1028 1028 
1028 1028 1028 1028 1028 1028 1028 1028 1028 
1028 1028 1028 1028 1028 1028 1028 1028 1028 
1028 1028 1028 1028 1028 1028 1028 1028 1028 
1028 1028 1028 1028 1028 1028 1028 1028 1028 
1028 1028 1028 1028 1028 1028 1028 1028 1028 
1028 1028 1028 1028 1028 1028 1028 1028 1028 
1028 1028 1028 1028 1028 1028 1028 1028 1028 
1028 1028 1028 1028 1028 1028 1028 1028 1028 
1028 1028 1028 1028 1028 1028 1028 1028 1028 
1028 1028 1028 1028 1028 1028 1028 1028 1028 
1028 1028 1028 1028 1028 1028 1028 1028 1028 
1028 1028 1028 1028 1028 1028 1028 1028 1028 
1028 1028 1028 1028 1028 1028 1028 1028 1028 
1028 1028 1028 1028 1028 1028 1028 1028 1028 
1028 1028 1028 1028 1028 1028 1028 1028 1028 
1028 1028 1028 1028 1028 1028 1028 1028 1028 
1028 1028 1028 1028 1028 1028 1028 1028 1028 
1028 1028 1028 1028 1028 1028 1028 1028 1028 
1028 1028 1028 1028 1028 1028 1028 1028 1028 
1028 1028 1028 1028 1028 1028 1028 1028 1028 
1028 1028 1028 1028 1028 1028 1028 1028 1028 
1028 1028 1028 1028 1028 1028 1028 1028 1028 
1028 1028 1028 1028 1028 1028 1028 1028 1028 
1028 1028 1028 1028 1028 1028 1028 1028 1028 
1028 1028 1028 1028 1028 1028 1028 1028 1028 
1028 1028 1028 1028 1028 1028 1028 1028 1028 
1028 1028 1028 1028 1028 1028 1028 1028 1028 
1028 1028 1028 1028 1028 1028 1028 1028 1028 
1028 1028 1028 1028 1028 1028 1028 1028 1028 
1028 1028 1028 1028 1028 1028 1028 1028 1028 
1028 1028 1028 1028 1028 1028 1028 1028 1028 
1028 1028 1028 1028 1028 1028 1028 1028 1028 
1028 1028 1028 1028 1028 1028 1028 1028 1028 
1028 1028 1028 1028 1028 1028 1028 1028 1028 
1028 1028 1028 1028 1028 1028 1028 1028 1028 
1028 1028 1028 1028 1028 1028 1028 1028 1028 
1028 1028 1028 1028 1028 1028 1028 1028 1028 
1028 1028 1028 1028 1028 1028 1028 1028 1028 
1028 1028 1028 1028 1028 1028 1028 1028 1028 
1028 1028 1028 1028 1028 1028 1028 1028 1028 
1028 1028 1028 1028 1028 1028 1028 1028 1028 
1028 1028 1028 1028 1028 1028 1028 1028 1028 
1028 1028 1028 1028 1028 1028 1028 1028 1028 
1028 1028 1028 1028 1028 1028 1028 1028 1028 
1028 1028 1028 1028 1028 1028 1028 1028 1028 
1028 1028 1028 1028 1028 1028 1028 1028 1028 
1028 1028 1028 1028 1028 1028 1028 1028 1028 
1028 1028 1028 1028 1028 1028 1028 1028 1028 
1028 1028 1028 1028 1028 1028 1028 1028 1028 
1028 1028 1028 1028 1028 1028 1028 1028 1028 
1028 1028 1028 1028 1028 1028 1028 1028 1028 
1028 1028 1028 1028 1028 1028 1028 1028 1028 
1028 1028 1028 1028 1028 1028 1028 1028 1028 
1028 1028 1028 1028 1028 1028 1028 1028 1028 
1028 1028 1028 1028 1028 1028 1028 1028 1028 
1028 1028 1028 1028 1028 1028 1028 1028 1028 
1028 1028 1028 1028 1028 1028 1028 1028 1028 
1028 1028 1028 1028 1028 1028 1028 1028 1028 
1028 1028 1028 1028 1028 1028 1028 1028 1028 
1028 1028 1028 1028 1028 1028 1028 1028 1028 
1028 1028 1028 1028 1028 1028 1028 1028 1028 
1028 1028 1028 1028 1028 1028 1028 1028 1028 
1028 1028 1028 1028 1028 1028 1028 1028 1028 
1028 1028 1028 1028 1028 1028 1028 1028 1028 
1028 1028 1028 1028 1028 1028 1028 1028 1028 
1028 1028 1028 1028 1028 1028 1028 1028 1028 
1028 1028 1028 1028 1028 1028 1028 1028 1028 
1028 1028 1028 1028 1028 1028 1028 1028 1028 
1028 1028 1028 1028 1028 1028 1028 1028 1028 
1028 1028 1028 1028 1028 1028 1028 1028 1028 
1028 1028 1028 1028 1028 1028 1028 1028 1028 
1028 1028 1028 1028 1028 1028 1028 1028 1028 
1028 1028 1028 1028 1028 1028 1028 1028 1028 
1028 1028 1028 1028 1028 1028 1028 1028 1028 
1028 1028 1028 1028 1028 1028 1028 1028 1028 
1028 1028 1028 1028 1028 1028 1028 1028 1028 
1028 1028 1028 1028 1028 1028 1028 1028 1028 
1028 1028 1028 1028 1028 1028 1028 1028 1028 
1028 1028 1028 1028 1028 1028 1028 1028 1028 
1028 1028 1028 1028 1028 1028 1028 1028 1028 
1028 1028 1028 1028 1028 1028 1028 1028 1028 
1028 1028 1028 1028 1028 1028 1028 1028 1028 
1028 1028 1028 1028 1028 1028 1028 1028 1028 
1028 1028 1028 1028 1028 1028 1028 1028 1028 
1028 1028 1028 1028 1028 1028 1028 1028 1028 
1028 1028 1028 1028 1028 1028 1028 1028 1028 
1028 1028 1028 1028 1028 1028 1028 1028 1028 
1028 1028 1028 1028 1028 1028 1028 1028 1028 
1028 1028 1028 1028 1028 1028 1028 1028 1028 
1028 1028 1028 1028 1028 1028 1028 1028 1028 
1028 1028 1028 1028 1028 1028 1028 1028 1028 
1028 1028 1028 1028 1028 1028 1028 1028 1028 
1028 1028 1028 1028 1028 1028 1028 1028 1028 
1028 1028 1028 1028 1028 1028 1028 1028 1028 
1028 1028 1028 1028 1028 1028 1028 1028 1028 
1028 1028 1028 1028 1028 1028 1028 1028 1028 
1028 1028 1028 1028 1028 1028 1028 1028 1028 
1028 1028 1028 1028 1028 1028 1028 1028 1028 
1028 1028 1028 1028 1028 1028 1028 1028 1028 
1028 1028 1028 1028 1028 1028 1028 1028 1028 
1028 1028 1028 1028 1028 1028 1028 1028 1028 
1028 1028 1028 1028 1028 1028 1028 1028 1028 
1028 1028 1028 1028 1028 1028 1028 1028 1028 
1028 1028 1028 1028 1028 1028 1028 1028 1028 
1028 1028 1028 1028 1028 1028 1028 1028 1028 
1028 1028 1028 1028 1028 1028 1028 1028 1028 
1028 1028 1028 1028 1028 1028 1028 1028 1028 
1028 1028 1028 1028 1028 1028 1028 1028 1028 
1028 1028 1028 1028 1028 1028 1028 1028 1028 
1028 1028 1028 1028 1028 1028 1028 1028 1028 
1028 1028 1028 1028 1028 1028 1028 1028 1028 
1028 1028 1028 1028 1028 1028 1028 1028 1028 
1028 1028 1028 1028 1028 1028 1028 1028 1028 
1028 1028 1028 1028 1028 1028 1028 1028 1028 
1028 1028 1028 1028 1028 1028 1028 1028 1028 
1028 1028 1028 1028 1028 1028 1028 1028 1028 
1028 1028 1028 1028 1028 1028 1028 1028 1028 
1028 1028 1028 1028 1028 1028 1028 1028 1028 
1028 1028 1028 1028 1028 1028 1028 1028 1028 
1028 1028 1028 1028 1028 1028 1028 1028 1028 
1028 1028 1028 1028 1028 1028 1028 1028 1028 
1028 1028 1028 1028 1028 1028 1028 1028 1028 
1028 1028 1028 1028 1028 1028 1028 1028 1028 
1028 1028 1028 1028 1028 1028 1028 1028 1028 
1028 1028 1028 1028 1028 1028 1028 1028 1028 
1028 1028 1028 1028 1028 1028 1028 1028 1028 
1028 1028 1028 1028 1028 1028 1028 1028 1028 
1028 1028 1028 1028 1028 1028 1028 1028 1028 
1028 1028 1028 1028 1028 1028 1028 1028 1028 
1028 1028 1028 1028 1028 1028 1028 1028 1028 
1028 1028 1028 1028 1028 1028 1028 1028 1028 
1028 1028 1028 1028 1028 1028 1028 1028 1028 
1028 1028 1028 1028 1028 1028 1028 1028 1028 
1028 1028 1028 1028 1028 1028 1028 1028 1028 
1028 1028 1028 1028 1028 1028 1028 1028 1028 
1028 1028 1028 1028 1028 1028 1028 1028 1028 
1028 1028 1028 1028 1028 1028 1028 1028 1028 
1028 1028 1028 1028 1028 1028 1028 1028 1028 
1028 1028 1028 1028 1028 1028 1028 1028 1028 
1028 1028 1028 1028 1028 1028 1028 1028 1028 
1028 1028 1028 1028 1028 1028 1028 1028 1028 
1028 1028 1028 1028 1028 1028 1028 1028 1028 
1028 1028 1028 1028 1028 1028 1028 1028 1028 
1028 1028 1028 1028 1028 1028 1028 1028 1028 
1028 1028 1028 1028 1028 1028 1028 1028 1028 
1028 1028 1028 1028 1028 1028 1028 1028 1028 
1028 1028 1028 1028 1028 1028 1028 1028 1028 
1028 1028 1028 1028 1028 1028 1028 1028 1028 
1028 1028 1028 1028 1028 1028 1028 1028 1028 
1028 1028 1028 1028 1028 1028 1028 1028 1028 
1028 1028 1028 1028 1028 1028 1028 1028 1028 
1028 1028 1028 1028 1028 1028 1028 1028 1028 
1028 1028 1028 1028 1028 1028 1028 1028 1028 
1028 1028 1028 1028 1028 1028 1028 1028 1028 
1028 1028 1028 1028 1028 1028 1028 1028 1028 
1028 1028 1028 1028 1028 1028 1028 1028 1028 
1028 1028 1028 1028 1028 1028 1028 1028 1028 
1028 1028 1028 1028 1028 1028 1028 1028 1028 
1028 1028 1028 1028 1028 1028 1028 1028 1028 
1028 1028 1028 1028 1028 1028 1028 1028 1028 
1028 1028 1028 1028 1028 1028 1028 1028 1028 
1028 1028 1028 1028 1028 1028 1028 1028 1028 
1028 1028 1028 1028 1028 1028 1028 1028 1028 
1028 1028 1028 1028 1028 1028 1028 1028 1028 
1028 1028 1028 1028 1028 1028 1028 1028 1028 
1028 1028 1028 1028 1028 1028 1028 1028 1028 
1028 1028 1028 1028 1028 1028 1028 1028 1028 
1028 1028 1028 1028 1028 1028 1028 1028 1028 
1028 1028 1028 1028 1028 1028 1028 1028 1028 
1028 1028 1028 1028 1028 1028 1028 1028 1028 
1028 1028 1028 1028 1028 1028 1028 1028 1028 
1028 1028 1028 1028 1028 1028 1028 1028 1028 
1028 1028 1028 1028 1028 1028 1028 1028 1028 
1028 1028 1028 1028 1028 1028 1028 1028 1028 
1028 1028 1028 1028 1028 1028 1028 1028 1028 
1028 1028 1028 1028 1028 1028 1028 1028 1028 
1028 1028 1028 1028 1028 1028 1028 1028 1028 
1028 1028 1028 1028 1028 1028 1028 1028 1028 
1028 1028 1028 1028 1028 1028 1028 1028 1028 
1028 1028 1028 1028 1028 1028 1028 1028 1028 
1028 1028 1028 1028 1028 1028 1028 1028 1028 
1028 1028 1028 1028 1028 1028 1028 1028 1028 
1028 1028 1028 1028 1028 1028 1028 1028 1028 
1028 1028 1028 1028 1028 1028 1028 1028 1028 
1028 1028 1028 1028 1028 1028 1028 1028 1028 
1028 1028 1028 1028 1028 1028 1028 1028 1028 
1028 1028 1028 1028 1028 1028 1028 1028 1028 
1028 1028 1028 1028 1028 1028 1028 1028 1028 
1028 1028 1028 1028 1028 1028 1028 1028 1028 
1028 1028 1028 1028 1028 1028 1028 1028 1028 
1028 1028 1028 1028 1028 1028 1028 1028 1028 
1028 1028 1028 1028 1028 1028 1028 1028 1028 
1028 1028 1028 1028 1028 1028 1028 1028 1028 
1028 1028 1028 1028 1028 1028 1028 1028 1028 
1028 1028 1028 1028 1028 1028 1028 1028 1028 
1028 1028 1028 1028 1028 1028 1028 1028 1028 
1028 1028 1028 1028 1028 1028 1028 1028 1028 
1028 1028 1028 1028 1028 1028 1028 1028 1028 
1028 1028 1028 1028 1028 1028 1028 1028 1028 
1028 1028 1028 1028 1028 1028 1028 1028 1028 
1028 1028 1028 1028 1028 1028 1028 1028 1028 
1028 1028 1028 1028 1028 1028 1028 1028 1028 
1028 1028 1028 1028 1028 1028 1028 1028 1028 
1028 1028 1028 1028 1028 1028 1028 1028 1028 
1028 1028 1028 1028 1028 1028 1028 1028 1028 
1028 1028 1028 1028 1028 1028 1028 1028 1028 
1028 1028 1028 1028 1028 1028 1028 1028 1028 
1028 1028 1028 1028 1028 1028 1028 1028 1028 
1028 1028 1028 1028 1028 1028 1028 1028 1028 
1028 1028 1028 1028 1028 1028 1028 1028 1028 
1028 1028 1028 1028 1028 1028 1028 1028 1028 
1028 1028 1028 1028 1028 1028 1028 1028 1028 
1028 1028 1028 1028 1028 1028 1028 1028 1028 
1028 1028 1028 1028 1028 1028 1028 1028 1028 
1028 1028 1028 1028 1028 1028 1028 1028 1028 
1028 1028 1028 1028 1028 1028 1028 1028 1028 
1028 1028 1028 1028 1028 1028 1028 1028 1028 
1028 1028 1028 1028 1028 1028 1028 1028 1028 
1028 1028 1028 1028 1028 1028 1028 1028 1028 
1028 1028 1028 1028 1028 1028 1028 1028 1028 
1028 1028 1028 1028 1028 1028 1028 1028 1028 
1028 1028 1028 1028 1028 1028 1028 1028 1028 
1028 1028 1028 1028 1028 1028 1028 1028 1028 
1028 1028 1028 1028 1028 1028 1028 1028 1028 
1028 1028 1028 1028 1028 1028 1028 1028 1028 
1028 1028 1028 1028 1028 1028 1028 1028 1028 
1028 1028 1028 1028 1028 1028 1028 1028 1028 
1028 1028 1028 1028 1028 1028 1028 1028 1028 
1028 1028 1028 1028 1028 1028 1028 1028 1028 
1028 1028 1028 1028 1028 1028 1028 1028 1028 
1028 1028 1028 1028 1028 1028 1028 1028 1028 
1028 1028 1028 1028 1028 1028 1028 1028 1028 
1028 1028 1028 1028 1028 1028 1028 1028 1028 
1028 1028 1028 1028 1028 1028 1028 1028 1028 
1028 1028 1028 1028 1028 1028 1028 1028 1028 
1028 1028 1028 1028 1028 1028 1028 1028 1028 
1028 1028 1028 1028 1028 1028 1028 1028 1028 
1028 1028 1028 1028 1028 1028 1028 1028 1028 
1028 1028 1028 1028 1028 1028 1028 1028 1028 
1028 1028 1028 1028 1028 1028 1028 1028 1028 
1028 1028 1028 1028 1028 1028 1028 1028 1028 
1028 1028 1028 1028 1028 1028 1028 1028 1028 
1028 1028 1028 1028 1028 1028 1028 1028 1028 
1028 1028 1028 1028 1028 1028 1028 1028 1028 
1028 1028 1028 1028 1028 1028 1028 1028 1028 
1028 1028 1028 1028 1028 1028 1028 1028 1028 
1028 1028 1028 1028 1028 1028 1028 1028 1028 
1028 1028 1028 1028 1028 1028 1028 1028 1028 
1028 1028 1028 1028 1028 1028 1028 1028 1028 
1028 1028 1028 1028 1028 1028 1028 1028 1028 
1028 1028 1028 1028 1028 1028 1028 1028 1028 
1028 1028 1028 1028 1028 1028 1028 1028 1028 
1028 1028 1028 1028 1028 1028 1028 1028 1028 
1028 1028 1028 1028 1028 1028 1028 1028 1028 
1028 1028 1028 1028 1028 1028 1028 1028 1028 
1028 1028 1028 1028 1028 1028 1028 1028 1028 
1028 1028 1028 1028 1028 1028 1028 1028 1028 
1028 1028 1028 1028 1028 1028 1028 1028 1028 
1028 1028 1028 1028 1028 1028 1028 1028 1028 
1028 1028 1028 1028 1028 1028 1028 1028 1028 
1028 1028 1028 1028 1028 1028 1028 1028 1028 
1028 1028 1028 1028 1028 1028 1028 1028 1028 
1028 1028 1028 1028 1028 1028 1028 1028 1028 
1028 1028 1028 1028 1028 1028 1028 1028 1028 
1028 1028 1028 1028 1028 1028 1028 1028 1028 
1028 1028 1028 1028 1028 1028 1028 1028 1028 
1028 1028 1028 1028 1028 1028 1028 1028 1028 
1028 1028 1028 1028 1028 1028 1028 1028 1028 
1028 1028 1028 1028 1028 1028 1028 1028 1028 
1028 1028 1028 1028 1028 1028 1028 1028 1028 
1028 1028 1028 1028 1028 1028 1028 1028 1028 
1028 1028 1028 1028 1028 1028 1028 1028 1028 
1028 1028 1028 1028 1028 1028 1028 1028 1028 
1028 1028 1028 1028 1028 1028 1028 1028 1028 
1028 1028 1028 1028 1028 1028 1028 1028 1028 
1028 1028 1028 1028 1028 1028 1028 1028 1028 
1028 1028 1028 1028 1028 1028 1028 1028 1028 
1028 1028 1028 1028 1028 1028 1028 1028 1028 
1028 1028 1028 1028 1028 1028 1028 1028 1028 
1028 1028 1028 1028 1028 1028 1028 1028 1028 
1028 1028 1028 1028 1028 1028 1028 1028 1028 
1028 1028 1028 1028 1028 1028 1028 1028 1028 
1028 1028 1028 1028 1028 1028 1028 1028 1028 
1028 1028 1028 1028 1028 1028 1028 1028 1028 
1028 1028 1028 1028 1028 1028 1028 1028 1028 
1028 1028 1028 1028 1028 1028 1028 1028 1028 
1028 1028 1028 1028 1028 1028 1028 1028 1028 
1028 1028 1028 1028 1028 1028 1028 1028 1028 
1028 1028 1028 1028 1028 1028 1028 1028 1028 
1028 1028 1028 1028 1028 1028 1028 1028 1028 
1028 1028 1028 1028 1028 1028 1028 1028 1028 
1028 1028 1028 1028 1028 1028 1028 1028 1028 
1028 1028 1028 1028 1028 1028 1028 1028 1028 
1028 1028 1028 1028 1028 1028 1028 1028 1028 
1028 1028 1028 1028 1028 1028 1028 1028 1028 
1028 1028 1028 1028 1028 1028 1028 1028 1028 
1028 1028 1028 1028 1028 1028 1028 1028 1028 
1028 1028 1028 1028 1028 1028 1028 1028 1028 
1028 1028 1028 1028 1028 1028 1028 1028 1028 
1028 1028 1028 1028 1028 1028 1028 1028 1028 
1028 1028 1028 1028 1028 1028 1028 1028 1028 
1028 1028 1028 1028 1028 1028 1028 1028 1028 
1028 1028 1028 1028 1028 1028 1028 1028 1028 
1028 1028 1028 1028 1028 1028 1028 1028 1028 
1028 1028 1028 1028 1028 1028 1028 1028 1028 
1028 1028 1028 1028 1028 1028 1028 1028 1028 
1028 1028 1028 1028 1028 1028 1028 1028 1028 
1028 1028 1028 1028 1028 1028 1028 1028 1028 
1028 1028 1028 1028 1028 1028 1028 1028 1028 
1028 1028 1028 1028 1028 1028 1028 1028 1028 
1028 1028 1028 1028 1028 1028 1028 1028 1028 
1028 1028 1028 1028 1028 1028 1028 1028 1028 
1028 1028 1028 1028 1028 1028 1028 1028 1028 
1028 1028 1028 1028 1028 1028 1028 1028 1028 
1028 1028 1028 1028 1028 1028 1028 1028 1028 
1028 1028 1028 1028 1028 1028 1028 1028 1028 
1028 1028 1028 1028 1028 1028 1028 1028 1028 
1028 1028 1028 1028 1028 1028 1028 1028 1028 
1028 1028 1028 1028 1028 1028 1028 1028 1028 
1028 1028 1028 1028 1028 1028 1028 1028 1028 
1028 1028 1028 1028 1028 1028 1028 1028 1028 
1028 1028 1028 1028 1028 1028 1028 1028 1028 
1028 1028 1028 1028 1028 1028 1028 1028 1028 
1028 1028 1028 1028 1028 1028 1028 1028 1028 
1028 1028 1028 1028 1028 1028 1028 1028 1028 
1028 1028 1028 1028 1028 1028 1028 1028 1028 
1028 1028 1028 1028 1028 1028 1028 1028 1028 
1028 1028 1028 1028 1028 1028 1028 1028 1028 
1028 1028 1028 1028 1028 1028 1028 1028 1028 
1028 1028 1028 1028 1028 1028 1028 1028 1028 
1028 1028 1028 1028 1028 1028 1028 1028 1028 
1028 1028 1028 1028 1028 1028 1028 1028 1028 
1028 1028 1028 1028 1028 1028 1028 1028 1028 
1028 1028 1028 1028 1028 1028 1028 1028 1028 
1028 1028 1028 1028 1028 1028 1028 1028 1028 
1028 1028 1028 1028 1028 1028 1028 1028 1028 
1028 1028 1028 1028 1028 1028 1028 1028 1028 
1028 1028 1028 1028 1028 1028 1028 1028 1028 
1028 1028 1028 1028 1028 1028 1028 1028 1028 
1028 1028 1028 1028 1028 1028 1028 1028 1028 
1028 1028 1028 1028 1028 1028 1028 1028 1028 
1028 1028 1028 1028 1028 1028 1028 1028 1028 
1028 1028 1028 1028 1028 1028 1028 1028 1028 
1028 1028 1028 1028 1028 1028 1028 1028 1028 
1028 1028 1028 1028 1028 1028 1028 1028 1028 
1028 1028 1028 1028 1028 1028 1028 1028 1028 
1028 1028 1028 1028 1028 1028 1028 1028 1028 
1028 1028 1028 1028 1028 1028 1028 1028 1028 
1028 1028 1028 1028 1028 1028 1028 1028 1028 
1028 1028 1028 1028 1028 1028 1028 1028 1028 
1028 1028 1028 1028 1028 1028 1028 1028 1028 
1028 1028 1028 1028 1028 1028 1028 1028 1028 
1028 1028 1028 1028 1028 1028 1028 1028 1028 
1028 1028 1028 1028 1028 1028 1028 1028 1028 
1028 1028 1028 1028 1028 1028 1028 1028 1028 
1028 1028 1028 1028 1028 1028 1028 1028 1028 
1028 1028 1028 1028 1028 1028 1028 1028 1028 
1028 1028 1028 1028 1028 1028 1028 1028 1028 
1028 1028 1028 1028 1028 1028 1028 1028 1028 
1028 1028 1028 1028 1028 1028 1028 1028 1028 
1028 1028 1028 1028 1028 1028 1028 1028 1028 
1028 1028 1028 1028 1028 1028 1028 1028 1028 
1028 1028 1028 1028 1028 1028 1028 1028 1028 
1028 1028 1028 1028 1028 1028 1028 1028 1028 