# vtk DataFile Version 4.0
vtk output
ASCII
DATASET POLYDATA
POINTS 14812 float
-38.2483 18.7841 -39.0713 -38.1416 18.2784 -38.7388 -37.8084 18.5434 -38.9666 
-39.1043 18.8977 -39.2845 -38.8448 18.3977 -38.6946 -39.5425 18.4279 -38.9235 
-38.0714 18.5207 -39.3482 -38.3792 18.4604 -40.1854 -38.7164 18.955 -39.8262 
-39.9194 18.6728 -39.3675 -39.7975 18.9012 -40.1073 -40.775 18.7554 -40.1408 
-40.9193 18.3725 -39.5278 -41.4585 18.4345 -39.9991 -39.0267 18.8244 -40.7696 
-38.6335 18.5065 -41.1998 -39.611 18.3942 -41.1551 -40.3272 18.4178 -40.6477 
-41.2515 18.3165 -40.3876 -39.065 18.4335 -41.5625 -37.8875 18.2504 -38.9727 
-38.2832 17.5798 -39.128 -38.7919 17.5956 -38.4071 -40.3388 18.0891 -38.9906 
-39.8294 17.5718 -38.4613 -40.9871 17.8552 -39.0151 -40.9651 17.3364 -38.6966 
-41.5835 17.4755 -39.0388 -38.0852 17.3014 -39.7164 -37.7607 17.473 -40.3712 
-38.0569 17.8554 -39.949 -41.9041 17.9982 -40.1217 -41.9028 17.7995 -39.6131 
-42.3251 17.2415 -39.7749 -38.0761 18.0607 -40.9751 -37.6028 17.5796 -41.2341 
-39.9887 18.0501 -41.0757 -40.3981 17.7064 -41.0066 -41.1447 17.4946 -40.7479 
-41.9505 17.4506 -40.3498 -37.9247 17.8082 -41.8636 -37.4492 17.3013 -41.9555 
-38.6331 18.0007 -41.9676 -39.3617 17.7407 -41.9528 -40.0868 17.3118 -41.498 
-38.1561 17.278 -42.4667 -38.9803 17.304 -42.4185 -39.3055 16.9515 -37.9864 
-38.8964 16.1528 -37.6597 -38.5401 16.484 -38.3084 -40.0895 16.8613 -38.0617 
-39.9051 16.3702 -37.7147 -40.587 16.3319 -37.9542 -38.524 16.447 -38.9969 
-40.9342 16.5934 -38.332 -42.1814 17.0455 -39.189 -41.7881 16.6508 -38.7146 
-42.3771 16.3637 -39.1686 -37.9284 16.8713 -40.1752 -38.3609 16.4585 -39.6688 
-42.6081 16.3853 -39.8979 -37.8458 16.0891 -40.4739 -37.3825 16.8584 -41.0506 
-40.8108 17.0801 -41.145 -41.367 16.5863 -41.0177 -42.1203 16.3262 -40.592 
-37.0028 16.8006 -41.9056 -36.8418 16.3694 -41.4768 -36.6563 16.199 -42.2431 
-39.5303 16.775 -42.1389 -40.1565 16.1871 -41.7296 -40.8835 16.3901 -41.3728 
-37.3253 16.5286 -42.5826 -38.1362 16.3369 -42.6306 -38.858 16.5036 -42.4942 
-38.1249 15.8579 -37.8963 -38.1825 15.3212 -37.668 -37.7232 15.1924 -38.2158 
-38.8881 15.5226 -37.4896 -39.6598 15.4746 -37.3937 -41.1588 15.8939 -38.0668 
-40.8698 15.4376 -37.5315 -41.6136 15.3186 -37.9417 -38.0592 15.5975 -38.4194 
-38.3815 15.6575 -39.1793 -41.869 15.7873 -38.4753 -42.6841 15.3396 -39.2842 
-38.3177 15.6043 -40.0241 -43.0499 15.6159 -39.8369 -42.938 15.8644 -40.157 
-43.1805 15.4588 -40.0777 -37.1228 16.0756 -40.9822 -37.2727 15.5666 -40.6623 
-36.5697 15.5898 -41.2869 -37.8393 15.367 -40.3373 -41.54 15.7347 -41.0823 
-42.0455 15.2743 -40.7553 -42.7189 15.3125 -40.347 -36.2546 15.5617 -42.2868 
-39.406 15.8244 -42.0877 -39.9566 15.1728 -41.6729 -40.8794 15.4431 -41.4313 
-36.8799 15.9625 -42.9754 -36.425 15.5384 -43.0141 -37.2815 15.6271 -43.0531 
-37.8331 15.4964 -42.7413 -38.6185 15.4215 -42.3815 -36.8615 15.1885 -43.3673 
-40.3283 14.9433 -37.0213 -40.1522 14.509 -36.6235 -39.6347 14.5921 -36.9258 
-40.9027 14.9077 -37.0351 -40.7111 14.5186 -36.6038 -41.4248 14.3168 -36.898 
-38.1954 14.3835 -37.6429 -37.6997 14.6943 -38.0377 -38.868 14.8541 -37.3637 
-42.4058 15.0086 -38.2113 -42.0523 14.5482 -37.5694 -43.0882 14.7107 -38.2358 
-42.8657 14.4761 -37.7801 -43.3522 14.2433 -38.0159 -37.8127 15.0379 -39.0744 
-37.3633 14.4587 -38.8318 -42.9381 14.8779 -38.7994 -43.3008 14.4142 -38.6807 
-37.1416 14.9229 -40.1005 -36.8099 14.4009 -39.6051 -36.3888 14.5317 -40.2014 
-38.0475 15.1336 -39.8351 -43.0037 15.1864 -39.929 -42.6655 14.6312 -39.8727 
-42.9717 14.6412 -39.3026 -36.159 14.8428 -40.8968 -35.7655 14.2977 -40.5443 
-35.6843 14.5002 -41.3088 -41.5119 14.5664 -40.9879 -42.0968 14.4827 -40.4362 
-35.9512 15.0394 -41.8405 -35.5562 14.4017 -42.1173 -39.128 15.0751 -41.9455 
-38.7121 14.6166 -42.0683 -39.3132 14.3383 -41.7501 -40.1392 14.2527 -41.5333 
-40.833 14.4312 -41.4007 -35.9175 14.9956 -42.7909 -35.4094 14.2561 -42.994 
-37.4528 14.7355 -43.1041 -38.2194 14.3042 -42.5477 -36.1315 14.4439 -43.4843 
-36.9502 14.3158 -43.4571 -40.0979 14.0122 -36.2119 -39.9805 13.2658 -35.7054 
-39.4705 13.4822 -36.1541 -40.9956 14.0304 -36.1599 -40.7041 13.3573 -35.5212 
-41.3834 13.4055 -35.9252 -38.9644 13.9484 -36.9375 -38.9671 13.1643 -36.5847 
-38.65 13.3746 -37.0898 -41.7635 13.2969 -36.7659 -37.7828 13.9793 -38.1872 
-38.351 13.4528 -37.6944 -42.2142 13.5564 -37.3041 -42.9378 13.7735 -37.6497 
-43.3296 13.5389 -38.2025 -36.0542 13.7963 -39.1464 -35.8855 13.1442 -38.6484 
-35.2366 13.2711 -39.3497 -36.7603 14.0902 -39.1441 -37.1419 13.5382 -38.6187 
-37.997 13.2208 -38.3057 -42.9211 13.9776 -39.1431 -42.471 13.3167 -39.245 
-43.0255 13.1438 -38.6228 -35.2723 13.7755 -39.9715 -34.9254 13.481 -39.7749 
-34.8218 13.4891 -40.0312 -36.1564 14.1867 -39.7677 -42.2001 13.8653 -39.8131 
-41.7058 13.5192 -40.4056 -42.0086 13.2322 -39.7628 -34.9461 13.5059 -40.3028 
-35.3264 13.5861 -40.8893 -41.3213 13.6015 -41.0494 -35.1824 13.373 -42.3231 
-38.8101 14.0189 -42.0917 -39.3065 13.3845 -42.0603 -39.9847 13.2937 -41.6243 
-40.8225 13.4298 -41.3578 -34.9457 13.7721 -42.9692 -34.8641 13.5147 -42.8301 
-34.7982 13.5421 -43.0919 -37.5624 13.7847 -43.092 -38.2222 13.4249 -42.8118 
-38.8085 13.4133 -42.5189 -35.2546 13.6347 -43.3935 -36.0737 13.3407 -43.6535 
-37.0002 13.4133 -43.5151 -41.0929 12.9422 -35.1074 -40.7719 12.2438 -34.6974 
-40.59 12.663 -34.9863 -41.3264 12.4726 -35.1153 -40.0546 12.5809 -35.3043 
-39.4518 12.4808 -35.9799 -41.5855 12.344 -36.184 -39.021 12.4018 -36.6911 
-38.6497 12.6485 -37.2694 -41.9211 12.6246 -36.8396 -42.1922 12.8844 -37.1435 
-42.2506 12.3106 -37.1908 -38.3831 12.4795 -38.1532 -42.7945 12.6174 -37.5763 
-43.2886 12.3461 -38.1442 -35.0591 12.8703 -38.8827 -35.2447 12.3572 -38.6815 
-34.8147 12.4788 -38.946 -35.9307 12.4922 -38.4485 -36.8312 12.5213 -38.6259 
-37.8774 12.554 -38.6335 -42.7496 12.7257 -38.9869 -43.1308 12.4147 -38.6688 
-34.9967 13.2644 -40.0309 -34.9442 12.6287 -39.2256 -35.2261 12.4765 -39.8488 
-41.8822 12.8033 -40.1583 -42.399 12.6123 -39.6518 -35.4873 12.331 -41.1503 
-41.5415 12.7489 -40.8606 -42.1302 12.3518 -40.3904 -35.0203 12.7277 -41.8908 
-35.0295 12.3364 -41.7939 -34.8415 12.4899 -42.0267 -39.7076 12.6686 -42.0269 
-40.2031 12.4053 -41.7808 -40.8998 12.5447 -41.4427 -35.0747 13.1561 -43.0501 
-34.9894 12.646 -42.2959 -35.3307 12.304 -42.8225 -37.8851 13.1208 -43.1777 
-38.6479 12.8614 -43.0623 -39.3949 12.6072 -42.6924 -35.85 12.5465 -43.501 
-36.9347 12.4563 -43.6291 -38.0841 12.4441 -43.4871 -39.1907 12.1584 -43.3631 
-40.1607 12.0634 -34.8552 -40.2022 11.289 -34.6376 -39.6748 11.687 -35.2207 
-40.9894 11.6514 -34.6019 -41.3653 11.5224 -35.1046 -39.4253 11.3343 -35.8601 
-41.4636 11.2939 -35.8768 -38.9079 11.8982 -37.2148 -39.2929 11.395 -36.8302 
-41.8911 12.0274 -36.9609 -41.6221 11.2433 -36.8392 -39.0683 11.2921 -37.6581 
-38.7102 11.7343 -37.9129 -42.2249 11.6207 -37.3902 -42.8406 11.3942 -37.5931 
-43.3951 11.2683 -37.8115 -34.9616 12.2 -39.1232 -35.3224 11.6537 -39.1211 
-36.0446 11.5279 -38.6401 -36.8593 11.8507 -38.9569 -36.6731 11.3459 -38.9443 
-37.6496 11.9299 -39.081 -38.4438 11.6405 -38.7977 -43.1615 12.0868 -39.3295 
-43.5846 11.5194 -38.677 -35.5653 11.3369 -39.9973 -37.2952 11.4285 -39.323 
-38.2012 11.2154 -39.4181 -42.8079 12.0924 -40.2139 -43.8311 11.5847 -39.4551 
-43.6688 11.7612 -40.1549 -44.267 11.1612 -39.899 -35.9374 11.5754 -40.6958 
-36.0051 11.8307 -41.0114 -36.2187 11.2918 -40.9402 -42.0337 12.0913 -41.2085 
-43.1423 11.8549 -41.0328 -43.7126 11.5775 -40.9987 -44.0865 11.3461 -40.6241 
-34.9987 12.2547 -42.199 -35.3702 11.7808 -42.0564 -35.9561 11.3633 -41.4062 
-39.9739 12.1728 -42.2858 -40.8284 11.9208 -42.1134 -41.858 11.7973 -42.0498 
-42.7088 11.7655 -41.916 -43.5462 11.2968 -41.9683 -35.5389 11.1868 -42.9571 
-39.971 11.9207 -42.9225 -40.5611 11.5155 -42.9159 -41.3313 11.4609 -42.6326 
-42.2734 11.4638 -42.5697 -43.0188 11.3353 -42.5697 -36.0501 11.4276 -43.4604 
-36.9596 11.448 -43.6035 -37.9984 11.4588 -43.5784 -39.0271 11.4265 -43.5774 
-40.0579 11.3106 -43.4067 -39.9372 10.2626 -34.6208 -39.5703 10.7042 -35.1641 
-40.9096 10.3717 -34.4027 -41.5465 10.5582 -35.1203 -39.4111 10.4493 -36.0456 
-41.5829 10.5319 -36.051 -39.4553 10.2909 -36.8936 -41.6604 10.3955 -36.8185 
-43.0931 10.8436 -37.2343 -42.8566 10.3492 -36.7757 -42.5827 10.5855 -37.1757 
-43.3454 10.3222 -36.9979 -39.0212 11.0371 -38.4255 -39.5171 10.4745 -37.806 
-42.0477 10.7314 -37.3132 -43.6961 10.4143 -37.9085 -36.182 10.2169 -38.6609 
-35.6102 10.7333 -39.1165 -37.1056 10.9326 -39.1081 -36.8153 10.5129 -38.647 
-37.5083 10.3554 -38.9479 -38.8768 10.9486 -39.142 -39.476 10.4872 -38.8334 
-44.1278 10.3979 -38.5378 -44.0761 11.1016 -39.1831 -44.5064 10.4948 -39.1899 
-35.6747 10.3965 -39.7681 -37.9706 10.6101 -39.4168 -39.0894 10.3872 -39.4702 
-44.6528 10.495 -39.872 -36.1442 10.5174 -40.4213 -36.5509 10.3599 -41.2093 
-44.0387 11.0741 -41.3836 -44.5156 10.6583 -40.7601 -36.0724 10.4144 -41.7249 
-35.6124 10.6573 -42.2762 -44.0238 10.8569 -41.9797 -44.4467 10.4821 -41.7548 
-35.5715 10.2743 -43.0942 -40.9089 11.1228 -43.1427 -41.7516 10.9703 -43.0846 
-42.7077 10.9094 -43.0883 -43.48 10.7662 -42.8924 -44.0972 10.5582 -42.4394 
-36.0507 10.3878 -43.4859 -36.9715 10.4106 -43.5906 -38.0058 10.4397 -43.5571 
-38.8643 10.6074 -43.5674 -39.9648 10.3149 -43.661 -40.9998 10.5884 -43.4526 
-42.1041 10.3455 -43.5734 -43.0975 10.4248 -43.4365 -40.9686 9.77944 -33.9651 
-40.7064 9.2063 -33.7331 -40.5369 9.64849 -34.0081 -41.3825 9.32521 -34.008 
-39.9963 9.52885 -34.3169 -39.4955 9.54016 -35.0294 -42.1604 9.9006 -35.3725 
-41.8128 9.68892 -34.6226 -42.4429 9.11852 -35.1635 -39.4266 9.39447 -36.0516 
-41.9632 10.0652 -36.1933 -42.8465 9.50856 -35.6219 -42.7538 9.92978 -36.1433 
-43.2528 9.34744 -36.3696 -39.672 9.41714 -36.9597 -42.2117 10.1729 -36.7887 
-43.6425 9.42918 -37.1951 -39.9719 9.66712 -37.685 -40.0411 9.93856 -38.4311 
-40.3301 9.23417 -37.9105 -44.0546 9.37729 -37.7087 -44.0079 9.95314 -38.0699 
[...]
CELL_DATA 29664
SCALARS scalars float
LOOKUP_TABLE default
1009 1009 1009 1009 1009 1009 1009 1009 1009 
1009 1009 1009 1009 1009 1009 1009 1009 1009 
1009 1009 1009 1009 1009 1009 1009 1009 1009 
1009 1009 1009 1009 1009 1009 1009 1009 1009 
1009 1009 1009 1009 1009 1009 1009 1009 1009 
1009 1009 1009 1009 1009 1009 1009 1009 1009 
1009 1009 1009 1009 1009 1009 1009 1009 1009 
1009 1009 1009 1009 1009 1009 1009 1009 1009 
1009 1009 1009 1009 1009 1009 1009 1009 1009 
1009 1009 1009 1009 1009 1009 1009 1009 1009 
1009 1009 1009 1009 1009 1009 1009 1009 1009 
1009 1009 1009 1009 1009 1009 1009 1009 1009 
1009 1009 1009 1009 1009 1009 1009 1009 1009 
1009 1009 1009 1009 1009 1009 1009 1009 1009 
1009 1009 1009 1009 1009 1009 1009 1009 1009 
1009 1009 1009 1009 1009 1009 1009 1009 1009 
1009 1009 1009 1009 1009 1009 1009 1009 1009 
1009 1009 1009 1009 1009 1009 1009 1009 1009 
1009 1009 1009 1009 1009 1009 1009 1009 1009 
1009 1009 1009 1009 1009 1009 1009 1009 1009 
1009 1009 1009 1009 1009 1009 1009 1009 1009 
1009 1009 1009 1009 1009 1009 1009 1009 1009 
1009 1009 1009 1009 1009 1009 1009 1009 1009 
1009 1009 1009 1009 1009 1009 1009 1009 1009 
1009 1009 1009 1009 1009 1009 1009 1009 1009 
1009 1009 1009 1009 1009 1009 1009 1009 1009 
1009 1009 1009 1009 1009 1009 1009 1009 1009 
1009 1009 1009 1009 1009 1009 1009 1009 1009 
1009 1009 1009 1009 1009 1009 1009 1009 1009 
1009 1009 1009 1009 1009 1009 1009 1009 1009 
1009 1009 1009 1009 1009 1009 1009 1009 1009 
1009 1009 1009 1009 1009 1009 1009 1009 1009 
1009 1009 1009 1009 1009 1009 1009 1009 1009 
1009 1009 1009 1009 1009 1009 1009 1009 1009 
1009 1009 1009 1009 1009 1009 1009 1009 1009 
1009 1009 1009 1009 1009 1009 1009 1009 1009 
1009 1009 1009 1009 1009 1009 1009 1009 1009 
1009 1009 1009 1009 1009 1009 1009 1009 1009 
1009 1009 1009 1009 1009 1009 1009 1009 1009 
1009 1009 1009 1009 1009 1009 1009 1009 1009 
1009 1009 1009 1009 1009 1009 1009 1009 1009 
1009 1009 1009 1009 1009 1009 1009 1009 1009 
1009 1009 1009 1009 1009 1009 1009 1009 1009 
1009 1009 1009 1009 1009 1009 1009 1009 1009 
1009 1009 1009 1009 1009 1009 1009 1009 1009 
1009 1009 1009 1009 1009 1009 1009 1009 1009 
1009 1009 1009 1009 1009 1009 1009 1009 1009 
1009 1009 1009 1009 1009 1009 1009 1009 1009 
1009 1009 1009 1009 1009 1009 1009 1009 1009 
1009 1009 1009 1009 1009 1009 1009 1009 1009 
1009 1009 1009 1009 1009 1009 1009 1009 1009 
1009 1009 1009 1009 1009 1009 1009 1009 1009 
1009 1009 1009 1009 1009 1009 1009 1009 1009 
1009 1009 1009 1009 1009 1009 1009 1009 1009 
1009 1009 1009 1009 1009 1009 1009 1009 1009 
1009 1009 1009 1009 1009 1009 1009 1009 1009 
1009 1009 1009 1009 1009 1009 1009 1009 1009 
1009 1009 1009 1009 1009 1009 1009 1009 1009 
1009 1009 1009 1009 1009 1009 1009 1009 1009 
1009 1009 1009 1009 1009 1009 1009 1009 1009 
1009 1009 1009 1009 1009 1009 1009 1009 1009 
1009 1009 1009 1009 1009 1009 1009 1009 1009 
1009 1009 1009 1009 1009 1009 1009 1009 1009 
1009 1009 1009 1009 1009 1009 1009 1009 1009 
1009 1009 1009 1009 1009 1009 1009 1009 1009 
1009 1009 1009 1009 1009 1009 1009 1009 1009 
1009 1009 1009 1009 1009 1009 1009 1009 1009 
1009 1009 1009 1009 1009 1009 1009 1009 1009 
1009 1009 1009 1009 1009 1009 1009 1009 1009 
1009 1009 1009 1009 1009 1009 1009 1009 1009 
1009 1009 1009 1009 1009 1009 1009 1009 1009 
1009 1009 1009 1009 1009 1009 1009 1009 1009 
1009 1009 1009 1009 1009 1009 1009 1009 1009 
1009 1009 1009 1009 1009 1009 1009 1009 1009 
1009 1009 1009 1009 1009 1009 1009 1009 1009 
1009 1009 1009 1009 1009 1009 1009 1009 1009 
1009 1009 1009 1009 1009 1009 1009 1009 1009 
1009 1009 1009 1009 1009 1009 1009 1009 1009 
1009 1009 1009 1009 1009 1009 1009 1009 1009 
1009 1009 1009 1009 1009 1009 1009 1009 1009 
1009 1009 1009 1009 1009 1009 1009 1009 1009 
1009 1009 1009 1009 1009 1009 1009 1009 1009 
1009 1009 1009 1009 1009 1009 1009 1009 1009 
1009 1009 1009 1009 1009 1009 1009 1009 1009 
1009 1009 1009 1009 1009 1009 1009 1009 1009 
1009 1009 1009 1009 1009 1009 1009 1009 1009 
1009 1009 1009 1009 1009 1009 1009 1009 1009 
1009 1009 1009 1009 1009 1009 1009 1009 1009 
1009 1009 1009 1009 1009 1009 1009 1009 1009 
1009 1009 1009 1009 1009 1009 1009 1009 1009 
1009 1009 1009 1009 1009 1009 1009 1009 1009 
1009 1009 1009 1009 1009 1009 1009 1009 1009 
1009 1009 1009 1009 1009 1009 1009 1009 1009 
1009 1009 1009 1009 1009 1009 1009 1009 1009 
1009 1009 1009 1009 1009 1009 1009 1009 1009 
1009 1009 1009 1009 1009 1009 1009 1009 1009 
1009 1009 1009 1009 1009 1009 1009 1009 1009 
1009 1009 1009 1009 1009 1009 1009 1009 1009 
1009 1009 1009 1009 1009 1009 1009 1009 1009 
1009 1009 1009 1009 1009 1009 1009 1009 1009 
1009 1009 1009 1009 1009 1009 1009 1009 1009 
1009 1009 1009 1009 1009 1009 1009 1009 1009 
1009 1009 1009 1009 1009 1009 1009 1009 1009 
1009 1009 1009 1009 1009 1009 1009 1009 1009 
1009 1009 1009 1009 1009 1009 1009 1009 1009 
1009 1009 1009 1009 1009 1009 1009 1009 1009 
1009 1009 1009 1009 1009 1009 1009 1009 1009 
1009 1009 1009 1009 1009 1009 1009 1009 1009 
1009 1009 1009 1009 1009 1009 1009 1009 1009 
1009 1009 1009 1009 1009 1009 1009 1009 1009 
1009 1009 1009 1009 1009 1009 1009 1009 1009 
1009 1009 1009 1009 1009 1009 1009 1009 1009 
1009 1009 1009 1009 1009 1009 1009 1009 1009 
1009 1009 1009 1009 1009 1009 1009 1009 1009 
1009 1009 1009 1009 1009 1009 1009 1009 1009 
1009 1009 1009 1009 1009 1009 1009 1009 1009 
1009 1009 1009 1009 1009 1009 1009 1009 1009 
1009 1009 1009 1009 1009 1009 1009 1009 1009 
1009 1009 1009 1009 1009 1009 1009 1009 1009 
1009 1009 1009 1009 1009 1009 1009 1009 1009 
1009 1009 1009 1009 1009 1009 1009 1009 1009 
1009 1009 1009 1009 1009 1009 1009 1009 1009 
1009 1009 1009 1009 1009 1009 1009 1009 1009 
1009 1009 1009 1009 1009 1009 1009 1009 1009 
1009 1009 1009 1009 1009 1009 1009 1009 1009 
1009 1009 1009 1009 1009 1009 1009 1009 1009 
1009 1009 1009 1009 1009 1009 1009 1009 1009 
1009 1009 1009 1009 1009 1009 1009 1009 1009 
1009 1009 1009 1009 1009 1009 1009 1009 1009 
1009 1009 1009 1009 1009 1009 1009 1009 1009 
1009 1009 1009 1009 1009 1009 1009 1009 1009 
1009 1009 1009 1009 1009 1009 1009 1009 1009 
1009 1009 1009 1009 1009 1009 1009 1009 1009 
1009 1009 1009 1009 1009 1009 1009 1009 1009 
1009 1009 1009 1009 1009 1009 1009 1009 1009 
1009 1009 1009 1009 1009 1009 1009 1009 1009 
1009 1009 1009 1009 1009 1009 1009 1009 1009 
1009 1009 1009 1009 1009 1009 1009 1009 1009 
1009 1009 1009 1009 1009 1009 1009 1009 1009 
1009 1009 1009 1009 1009 1009 1009 1009 1009 
1009 1009 1009 1009 1009 1009 1009 1009 1009 
1009 1009 1009 1009 1009 1009 1009 1009 1009 
1009 1009 1009 1009 1009 1009 1009 1009 1009 
1009 1009 1009 1009 1009 1009 1009 1009 1009 
1009 1009 1009 1009 1009 1009 1009 1009 1009 
1009 1009 1009 1009 1009 1009 1009 1009 1009 
1009 1009 1009 1009 1009 1009 1009 1009 1009 
1009 1009 1009 1009 1009 1009 1009 1009 1009 
1009 1009 1009 1009 1009 1009 1009 1009 1009 
1009 1009 1009 1009 1009 1009 1009 1009 1009 
1009 1009 1009 1009 1009 1009 1009 1009 1009 
1009 1009 1009 1009 1009 1009 1009 1009 1009 
1009 1009 1009 1009 1009 1009 1009 1009 1009 
1009 1009 1009 1009 1009 1009 1009 1009 1009 
1009 1009 1009 1009 1009 1009 1009 1009 1009 
1009 1009 1009 1009 1009 1009 1009 1009 1009 
1009 1009 1009 1009 1009 1009 1009 1009 1009 
1009 1009 1009 1009 1009 1009 1009 1009 1009 
1009 1009 1009 1009 1009 1009 1009 1009 1009 
1009 1009 1009 1009 1009 1009 1009 1009 1009 
1009 1009 1009 1009 1009 1009 1009 1009 1009 
1009 1009 1009 1009 1009 1009 1009 1009 1009 
1009 1009 1009 1009 1009 1009 1009 1009 1009 
1009 1009 1009 1009 1009 1009 1009 1009 1009 
1009 1009 1009 1009 1009 1009 1009 1009 1009 
1009 1009 1009 1009 1009 1009 1009 1009 1009 
1009 1009 1009 1009 1009 1009 1009 1009 1009 
1009 1009 1009 1009 1009 1009 1009 1009 1009 
1009 1009 1009 1009 1009 1009 1009 1009 1009 
1009 1009 1009 1009 1009 1009 1009 1009 1009 
1009 1009 1009 1009 1009 1009 1009 1009 1009 
1009 1009 1009 1009 1009 1009 1009 1009 1009 
1009 1009 1009 1009 1009 1009 1009 1009 1009 
1009 1009 1009 1009 1009 1009 1009 1009 1009 
1009 1009 1009 1009 1009 1009 1009 1009 1009 
1009 1009 1009 1009 1009 1009 1009 1009 1009 
1009 1009 1009 1009 1009 1009 1009 1009 1009 
1009 1009 1009 1009 1009 1009 1009 1009 1009 
1009 1009 1009 1009 1009 1009 1009 1009 1009 
1009 1009 1009 1009 1009 1009 1009 1009 1009 
1009 1009 1009 1009 1009 1009 1009 1009 1009 
1009 1009 1009 1009 1009 1009 1009 1009 1009 
1009 1009 1009 1009 1009 1009 1009 1009 1009 
1009 1009 1009 1009 1009 1009 1009 1009 1009 
1009 1009 1009 1009 1009 1009 1009 1009 1009 
1009 1009 1009 1009 1009 1009 1009 1009 1009 
1009 1009 1009 1009 1009 1009 1009 1009 1009 
1009 1009 1009 1009 1009 1009 1009 1009 1009 
1009 1009 1009 1009 1009 1009 1009 1009 1009 
1009 1009 1009 1009 1009 1009 1009 1009 1009 
1009 1009 1009 1009 1009 1009 1009 1009 1009 
1009 1009 1009 1009 1009 1009 1009 1009 1009 
1009 1009 1009 1009 1009 1009 1009 1009 1009 
1009 1009 1009 1009 1009 1009 1009 1009 1009 
1009 1009 1009 1009 1009 1009 1009 1009 1009 
1009 1009 1009 1009 1009 1009 1009 1009 1009 
1009 1009 1009 1009 1009 1009 1009 1009 1009 
1009 1009 1009 1009 1009 1009 1009 1009 1009 
1009 1009 1009 1009 1009 1009 1009 1009 1009 
1009 1009 1009 1009 1009 1009 1009 1009 1009 
1009 1009 1009 1009 1009 1009 1009 1009 1009 
1009 1009 1009 1009 1009 1009 1009 1009 1009 
1009 1009 1009 1009 1009 1009 1009 1009 1009 
1009 1009 1009 1009 1009 1009 1009 1009 1009 
1009 1009 1009 1009 1009 1009 1009 1009 1009 
1009 1009 1009 1009 1009 1009 1009 1009 1009 
1009 1009 1009 1009 1009 1009 1009 1009 1009 
1009 1009 1009 1009 1009 1009 1009 1009 1009 
1009 1009 1009 1009 1009 1009 1009 1009 1009 
1009 1009 1009 1009 1009 1009 1009 1009 1009 
1009 1009 1009 1009 1009 1009 1009 1009 1009 
1009 1009 1009 1009 1009 1009 1009 1009 1009 
1009 1009 1009 1009 1009 1009 1009 1009 1009 
1009 1009 1009 1009 1009 1009 1009 1009 1009 
1009 1009 1009 1009 1009 1009 1009 1009 1009 
1009 1009 1009 1009 1009 1009 1009 1009 1009 
1009 1009 1009 1009 1009 1009 1009 1009 1009 
1009 1009 1009 1009 1009 1009 1009 1009 1009 
1009 1009 1009 1009 1009 1009 1009 1009 1009 
1009 1009 1009 1009 1009 1009 1009 1009 1009 
1009 1009 1009 1009 1009 1009 1009 1009 1009 
1009 1009 1009 1009 1009 1009 1009 1009 1009 
1009 1009 1009 1009 1009 1009 1009 1009 1009 
1009 1009 1009 1009 1009 1009 1009 1009 1009 
1009 1009 1009 1009 1009 1009 1009 1009 1009 
1009 1009 1009 1009 1009 1009 1009 1009 1009 
1009 1009 1009 1009 1009 1009 1009 1009 1009 
1009 1009 1009 1009 1009 1009 1009 1009 1009 
1009 1009 1009 1009 1009 1009 1009 1009 1009 
1009 1009 1009 1009 1009 1009 1009 1009 1009 
1009 1009 1009 1009 1009 1009 1009 1009 1009 
1009 1009 1009 1009 1009 1009 1009 1009 1009 
1009 1009 1009 1009 1009 1009 1009 1009 1009 
1009 1009 1009 1009 1009 1009 1009 1009 1009 
1009 1009 1009 1009 1009 1009 1009 1009 1009 
1009 1009 1009 1009 1009 1009 1009 1009 1009 
1009 1009 1009 1009 1009 1009 1009 1009 1009 
1009 1009 1009 1009 1009 1009 1009 1009 1009 
1009 1009 1009 1009 1009 1009 1009 1009 1009 
1009 1009 1009 1009 1009 1009 1009 1009 1009 
1009 1009 1009 1009 1009 1009 1009 1009 1009 
1009 1009 1009 1009 1009 1009 1009 1009 1009 
1009 1009 1009 1009 1009 1009 1009 1009 1009 
1009 1009 1009 1009 1009 1009 1009 1009 1009 
1009 1009 1009 1009 1009 1009 1009 1009 1009 
1009 1009 1009 1009 1009 1009 1009 1009 1009 
1009 1009 1009 1009 1009 1009 1009 1009 1009 
1009 1009 1009 1009 1009 1009 1009 1009 1009 
1009 1009 1009 1009 1009 1009 1009 1009 1009 
1009 1009 1009 1009 1009 1009 1009 1009 1009 
1009 1009 1009 1009 1009 1009 1009 1009 1009 
1009 1009 1009 1009 1009 1009 1009 1009 1009 
1009 1009 1009 1009 1009 1009 1009 1009 1009 
1009 1009 1009 1009 1009 1009 1009 1009 1009 
1009 1009 1009 1009 1009 1009 1009 1009 1009 
1009 1009 1009 1009 1009 1009 1009 1009 1009 
1009 1009 1009 1009 1009 1009 1009 1009 1009 
1009 1009 1009 1009 1009 1009 1009 1009 1009 
1009 1009 1009 1009 1009 1009 1009 1009 1009 
1009 1009 1009 1009 1009 1009 1009 1009 1009 
1009 1009 1009 1009 1009 1009 1009 1009 1009 
1009 1009 1009 1009 1009 1009 1009 1009 1009 
1009 1009 1009 1009 1009 1009 1009 1009 1009 
1009 1009 1009 1009 1009 1009 1009 1009 1009 
1009 1009 1009 1009 1009 1009 1009 1009 1009 
1009 1009 1009 1009 1009 1009 1009 1009 1009 
1009 1009 1009 1009 1009 1009 1009 1009 1009 
1009 1009 1009 1009 1009 1009 1009 1009 1009 
1009 1009 1009 1009 1009 1009 1009 1009 1009 
1009 1009 1009 1009 1009 1009 1009 1009 1009 
1009 1009 1009 1009 1009 1009 1009 1009 1009 
1009 1009 1009 1009 1009 1009 1009 1009 1009 
1009 1009 1009 1009 1009 1009 1009 1009 1009 
1009 1009 1009 1009 1009 1009 1009 1009 1009 
1009 1009 1009 1009 1009 1009 1009 1009 1009 
1009 1009 1009 1009 1009 1009 1009 1009 1009 
1009 1009 1009 1009 1009 1009 1009 1009 1009 
1009 1009 1009 1009 1009 1009 1009 1009 1009 
1009 1009 1009 1009 1009 1009 1009 1009 1009 
1009 1009 1009 1009 1009 1009 1009 1009 1009 
1009 1009 1009 1009 1009 1009 1009 1009 1009 
1009 1009 1009 1009 1009 1009 1009 1009 1009 
1009 1009 1009 1009 1009 1009 1009 1009 1009 
1009 1009 1009 1009 1009 1009 1009 1009 1009 
1009 1009 1009 1009 1009 1009 1009 1009 1009 
1009 1009 1009 1009 1009 1009 1009 1009 1009 
1009 1009 1009 1009 1009 1009 1009 1009 1009 
1009 1009 1009 1009 1009 1009 1009 1009 1009 
1009 1009 1009 1009 1009 1009 1009 1009 1009 
1009 1009 1009 1009 1009 1009 1009 1009 1009 
1009 1009 1009 1009 1009 1009 1009 1009 1009 
1009 1009 1009 1009 1009 1009 1009 1009 1009 
1009 1009 1009 1009 1009 1009 1009 1009 1009 
1009 1009 1009 1009 1009 1009 1009 1009 1009 
1009 1009 1009 1009 1009 1009 1009 1009 1009 
1009 1009 1009 1009 1009 1009 1009 1009 1009 
1009 1009 1009 1009 1009 1009 1009 1009 1009 
1009 1009 1009 1009 1009 1009 1009 1009 1009 
1009 1009 1009 1009 1009 1009 1009 1009 1009 
1009 1009 1009 1009 1009 1009 1009 1009 1009 
1009 1009 1009 1009 1009 1009 1009 1009 1009 
1009 1009 1009 1009 1009 1009 1009 1009 1009 
1009 1009 1009 1009 1009 1009 1009 1009 1009 
1009 1009 1009 1009 1009 1009 1009 1009 1009 
1009 1009 1009 1009 1009 1009 1009 1009 1009 
1009 1009 1009 1009 1009 1009 1009 1009 1009 
1009 1009 1009 1009 1009 1009 1009 1009 1009 
1009 1009 1009 1009 1009 1009 1009 1009 1009 
1009 1009 1009 1009 1009 1009 1009 1009 1009 
1009 1009 1009 1009 1009 1009 1009 1009 1009 
1009 1009 1009 1009 1009 1009 1009 1009 1009 
1009 1009 1009 1009 1009 1009 1009 1009 1009 
1009 1009 1009 1009 1009 1009 1009 1009 1009 
1009 1009 1009 1009 1009 1009 1009 1009 1009 
1009 1009 1009 1009 1009 1009 1009 1009 1009 
1009 1009 1009 1009 1009 1009 1009 1009 1009 
1009 1009 1009 1009 1009 1009 1009 1009 1009 
1009 1009 1009 1009 1009 1009 1009 1009 1009 
1009 1009 1009 1009 1009 1009 1009 1009 1009 
1009 1009 1009 1009 1009 1009 1009 1009 1009 
1009 1009 1009 1009 1009 1009 1009 1009 1009 
1009 1009 1009 1009 1009 1009 1009 1009 1009 
1009 1009 1009 1009 1009 1009 1009 1009 1009 
1009 1009 1009 1009 1009 1009 1009 1009 1009 
1009 1009 1009 1009 1009 1009 1009 1009 1009 
1009 1009 1009 1009 1009 1009 1009 1009 1009 
1009 1009 1009 1009 1009 1009 1009 1009 1009 
1009 1009 1009 1009 1009 1009 1009 1009 1009 
1009 1009 1009 1009 1009 1009 1009 1009 1009 
1009 1009 1009 1009 1009 1009 1009 1009 1009 
1009 1009 1009 1009 1009 1009 1009 1009 1009 
1009 1009 1009 1009 1009 1009 1009 1009 1009 
1009 1009 1009 1009 1009 1009 1009 1009 1009 
1009 1009 1009 1009 1009 1009 1009 1009 1009 
1009 1009 1009 1009 1009 1009 1009 1009 1009 
1009 1009 1009 1009 1009 1009 1009 1009 1009 
1009 1009 1009 1009 1009 1009 1009 1009 1009 
1009 1009 1009 1009 1009 1009 1009 1009 1009 
1009 1009 1009 1009 1009 1009 1009 1009 1009 
1009 1009 1009 1009 1009 1009 1009 1009 1009 
1009 1009 1009 1009 1009 1009 1009 1009 1009 
1009 1009 1009 1009 1009 1009 1009 1009 1009 
1009 1009 1009 1009 1009 1009 1009 1009 1009 
1009 1009 1009 1009 1009 1009 1009 1009 1009 
1009 1009 1009 1009 1009 1009 1009 1009 1009 
1009 1009 1009 1009 1009 1009 1009 1009 1009 
1009 1009 1009 1009 1009 1009 1009 1009 1009 
1009 1009 1009 1009 1009 1009 1009 1009 1009 
1009 1009 1009 1009 1009 1009 1009 1009 1009 
1009 1009 1009 1009 1009 1009 1009 1009 1009 
1009 1009 1009 1009 1009 1009 1009 1009 1009 
1009 1009 1009 1009 1009 1009 1009 1009 1009 
1009 1009 1009 1009 1009 1009 1009 1009 1009 
1009 1009 1009 1009 1009 1009 1009 1009 1009 
1009 1009 1009 1009 1009 1009 1009 1009 1009 
1009 1009 1009 1009 1009 1009 1009 1009 1009 
1009 1009 1009 1009 1009 1009 1009 1009 1009 
1009 1009 1009 1009 1009 1009 1009 1009 1009 
1009 1009 1009 1009 1009 1009 1009 1009 1009 
1009 1009 1009 1009 1009 1009 1009 1009 1009 
1009 1009 1009 1009 1009 1009 1009 1009 1009 
1009 1009 1009 1009 1009 1009 1009 1009 1009 
1009 1009 1009 1009 1009 1009 1009 1009 1009 
1009 1009 1009 1009 1009 1009 1009 1009 1009 
1009 1009 1009 1009 1009 1009 1009 1009 1009 
1009 1009 1009 1009 1009 1009 1009 1009 1009 
1009 1009 1009 1009 1009 1009 1009 1009 1009 
1009 1009 1009 1009 1009 1009 1009 1009 1009 
1009 1009 1009 1009 1009 1009 1009 1009 1009 
1009 1009 1009 1009 1009 1009 1009 1009 1009 
1009 1009 1009 1009 1009 1009 1009 1009 1009 
1009 1009 1009 1009 1009 1009 1009 1009 1009 
1009 1009 1009 1009 1009 1009 1009 1009 1009 
1009 1009 1009 1009 1009 1009 1009 1009 1009 
1009 1009 1009 1009 1009 1009 1009 1009 1009 
1009 1009 1009 1009 1009 1009 1009 1009 1009 
1009 1009 1009 1009 1009 1009 1009 1009 1009 
1009 1009 1009 1009 1009 1009 1009 1009 1009 
1009 1009 1009 1009 1009 1009 1009 1009 1009 
1009 1009 1009 1009 1009 1009 1009 1009 1009 
1009 1009 1009 1009 1009 1009 1009 1009 1009 
1009 1009 1009 1009 1009 1009 1009 1009 1009 
1009 1009 1009 1009 1009 1009 1009 1009 1009 
1009 1009 1009 1009 1009 1009 1009 1009 1009 
1009 1009 1009 1009 1009 1009 1009 1009 1009 
1009 1009 1009 1009 1009 1009 1009 1009 1009 
1009 1009 1009 1009 1009 1009 1009 1009 1009 
1009 1009 1009 1009 1009 1009 1009 1009 1009 
1009 1009 1009 1009 1009 1009 1009 1009 1009 
1009 1009 1009 1009 1009 1009 1009 1009 1009 
1009 1009 1009 1009 1009 1009 1009 1009 1009 
1009 1009 1009 1009 1009 1009 1009 1009 1009 
1009 1009 1009 1009 1009 1009 1009 1009 1009 
1009 1009 1009 1009 1009 1009 1009 1009 1009 
1009 1009 1009 1009 1009 1009 1009 1009 1009 
1009 1009 1009 1009 1009 1009 1009 1009 1009 
1009 1009 1009 1009 1009 1009 1009 1009 1009 
1009 1009 1009 1009 1009 1009 1009 1009 1009 
1009 1009 1009 1009 1009 1009 1009 1009 1009 
1009 1009 1009 1009 1009 1009 1009 1009 1009 
1009 1009 1009 1009 1009 1009 1009 1009 1009 
1009 1009 1009 1009 1009 1009 1009 1009 1009 
1009 1009 1009 1009 1009 1009 1009 1009 1009 
1009 1009 1009 1009 1009 1009 1009 1009 1009 
1009 1009 1009 1009 1009 1009 1009 1009 1009 
1009 1009 1009 1009 1009 1009 1009 1009 1009 
1009 1009 1009 1009 1009 1009 1009 1009 1009 
1009 1009 1009 1009 1009 1009 1009 1009 1009 
1009 1009 1009 1009 1009 1009 1009 1009 1009 
1009 1009 1009 1009 1009 1009 1009 1009 1009 
1009 1009 1009 1009 1009 1009 1009 1009 1009 
1009 1009 1009 1009 1009 1009 1009 1009 1009 
1009 1009 1009 1009 1009 1009 1009 1009 1009 
1009 1009 1009 1009 1009 1009 1009 1009 1009 
1009 1009 1009 1009 1009 1009 1009 1009 1009 
1009 1009 1009 1009 1009 1009 1009 1009 1009 
1009 1009 1009 1009 1009 1009 1009 1009 1009 
1009 1009 1009 1009 1009 1009 1009 1009 1009 
1009 1009 1009 1009 1009 1009 1009 1009 1009 
1009 1009 1009 1009 1009 1009 1009 1009 1009 
1009 1009 1009 1009 1009 1009 1009 1009 1009 
1009 1009 1009 1009 1009 1009 1009 1009 1009 
1009 1009 1009 1009 1009 1009 1009 1009 1009 
1009 1009 1009 1009 1009 1009 1009 1009 1009 
1009 1009 1009 1009 1009 1009 1009 1009 1009 
1009 1009 1009 1009 1009 1009 1009 1009 1009 
1009 1009 1009 1009 1009 1009 1009 1009 1009 
1009 1009 1009 1009 1009 1009 1009 1009 1009 
1009 1009 1009 1009 1009 1009 1009 1009 1009 
1009 1009 1009 1009 1009 1009 1009 1009 1009 
1009 1009 1009 1009 1009 1009 1009 1009 1009 
1009 1009 1009 1009 1009 1009 1009 1009 1009 
1009 1009 1009 1009 1009 1009 1009 1009 1009 