# vtk DataFile Version 4.0
vtk output
ASCII
DATASET POLYDATA
POINTS 13402 float
14.0318 -35.2637 -6.00024 13.9857 -35.7047 -5.78006 14.2112 -35.621 -6.07985 
13.6045 -35.4906 -5.9464 13.7449 -35.6305 -6.2328 14.0838 -36.7127 -5.58258 
14.4115 -36.4322 -6.13343 13.1433 -35.9424 -6.09111 13.2616 -36.1998 -5.71053 
12.7559 -36.6687 -5.96492 13.8555 -36.3956 -6.38516 13.0809 -36.5178 -6.34595 
17.0294 -36.2574 -8.08147 17.1516 -36.5769 -7.90215 17.2303 -36.591 -8.18248 
16.6654 -36.5624 -7.87861 16.7618 -36.6404 -8.32672 15.0405 -36.9548 -6.13502 
14.8316 -37.3001 -5.54282 15.5692 -37.4498 -5.97633 14.1479 -37.4686 -5.26468 
12.993 -37.4914 -5.42785 12.3924 -37.6734 -6.19376 16.0017 -37.091 -7.04044 
16.1408 -37.6387 -6.41987 16.4076 -37.7299 -7.04256 15.0322 -37.0914 -7.06648 
13.9955 -37.2636 -6.7187 14.4572 -37.4742 -7.05975 13.0999 -37.4044 -6.627 
17.0281 -37.4569 -7.64472 17.4961 -37.3028 -8.08636 15.9968 -36.8994 -7.95829 
15.5791 -37.3643 -7.94427 14.9822 -37.8168 -7.5006 17.1492 -37.4152 -8.47738 
16.3431 -37.5394 -8.40044 14.9324 -37.9663 -5.14632 14.9009 -38.8083 -4.6801 
15.5399 -38.4921 -5.11104 13.7361 -37.9759 -4.92093 14.007 -38.6196 -4.59084 
13.0529 -38.121 -4.9376 13.215 -38.5111 -4.68533 12.5281 -38.7151 -5.17103 
15.8858 -38.0527 -5.70932 16.0586 -38.8197 -5.52861 16.3612 -38.3034 -6.25949 
11.8774 -38.2703 -6.08031 12.0839 -38.2841 -5.74727 11.7888 -38.5444 -6.0239 
16.4407 -38.4697 -6.98763 14.0447 -37.8119 -7.14363 13.2978 -38.0441 -7.05105 
12.5419 -38.4824 -6.77608 12.0053 -38.56 -6.25816 17.9344 -37.9973 -7.97922 
18.1961 -38.5837 -7.72036 18.5345 -38.6117 -8.12185 17.1583 -38.613 -7.55544 
16.195 -37.933 -7.76402 15.9359 -38.5244 -7.46596 16.5689 -38.5211 -8.05459 
15.1793 -38.6842 -7.3965 13.9528 -38.6226 -7.55774 12.967 -38.7568 -7.34032 
17.8441 -38.5299 -8.44767 16.8973 -38.5113 -8.50734 15.0011 -39.6266 -4.63912 
15.5218 -39.2358 -4.9804 14.1383 -39.6419 -4.35736 12.9919 -39.3805 -4.55279 
12.3244 -39.6016 -5.01384 16.2181 -39.8216 -5.48154 16.608 -39.1969 -6.18895 
11.9965 -38.7922 -5.86384 12.2366 -39.3955 -6.06947 16.6942 -39.0778 -7.22986 
17.0298 -39.5129 -6.51872 17.3912 -39.4887 -6.91526 14.7833 -39.0867 -7.16942 
15.3316 -39.3916 -7.06359 15.0438 -39.7131 -6.78369 14.6948 -39.7181 -6.95556 
12.5831 -39.5084 -7.17787 18.9912 -39.0679 -8.00696 18.9992 -39.5902 -7.74687 
19.316 -39.7648 -8.1563 18.1809 -39.5616 -7.33589 15.9865 -39.5737 -7.48191 
16.5946 -39.3518 -8.05939 14.3533 -39.4197 -7.65877 13.9474 -39.1303 -8.06072 
13.4577 -39.573 -8.23303 13.021 -39.4392 -7.73243 18.7837 -39.4678 -8.42676 
17.9183 -39.7277 -8.61193 17.1367 -39.5495 -8.498 14.1151 -39.6761 -8.51907 
13.8008 -40.2162 -4.02072 13.9249 -40.7903 -3.75094 14.3232 -40.383 -4.06488 
13.3573 -40.6495 -3.89057 15.0575 -40.6422 -4.49283 15.5654 -40.1807 -4.97297 
13.005 -40.3453 -4.27042 11.9245 -40.0804 -5.33426 12.2008 -40.2812 -4.67577 
11.6837 -40.7098 -5.0078 17.0822 -39.9328 -6.16479 16.8814 -40.6324 -5.7061 
17.4873 -40.5621 -6.18733 16.2505 -40.7566 -5.28946 12.0211 -40.1632 -6.09357 
11.655 -40.6496 -5.67778 31.9936 -40.3044 -7.00485 32.3096 -40.6813 -6.7431 
32.2922 -40.4757 -7.18078 31.549 -40.7407 -7.01681 20.8302 -40.1915 -7.01391 
21.0473 -40.683 -6.59432 21.2815 -40.6194 -7.14402 20.267 -40.2146 -7.10487 
20.0979 -40.5226 -6.75633 19.6021 -40.5676 -6.99485 17.8153 -40.1204 -6.73137 
18.1801 -40.8842 -6.61772 18.4593 -40.3817 -7.09894 15.4658 -40.2494 -6.96863 
14.977 -40.4974 -6.71904 14.614 -40.4527 -7.10007 12.3356 -40.316 -6.86437 
11.9663 -40.8347 -6.47172 31.9046 -40.5407 -7.45501 20.7487 -40.5481 -7.37822 
19.9875 -40.6106 -7.32036 19.3257 -40.6133 -7.96147 18.9239 -40.2725 -7.48146 
16.574 -40.2376 -8.07596 16.1515 -40.8354 -7.50977 14.6163 -40.2979 -7.98738 
12.9598 -40.0184 -8.08817 12.6537 -40.4543 -7.74214 19.1508 -40.3949 -8.42006 
18.3819 -40.6114 -8.48838 17.342 -40.4443 -8.41141 14.7668 -40.1316 -8.89541 
15.0925 -40.5729 -8.44601 15.3079 -40.7702 -9.19583 14.2462 -40.0875 -9.17252 
13.6392 -40.2491 -8.91221 13.0311 -40.6867 -8.46132 14.6909 -40.6268 -9.55471 
14.0105 -40.6713 -9.37265 14.2089 -41.6668 -3.60945 14.5695 -41.162 -3.96841 
12.7979 -41.0584 -4.05506 13.329 -41.3962 -3.7198 12.7001 -41.6559 -4.09106 
23.0116 -41.2645 -5.13354 23.2148 -41.5372 -4.73745 23.202 -41.6079 -5.23542 
22.7899 -41.6003 -4.82629 15.8429 -40.9688 -4.93423 16.0794 -41.687 -4.70282 
16.4447 -41.404 -5.10175 15.2979 -41.711 -4.27282 12.1741 -41.3471 -4.5019 
11.571 -41.5006 -5.1391 30.8876 -41.0424 -6.22462 31.1154 -41.7819 -5.6575 
31.5229 -41.4281 -5.98892 29.8427 -41.0572 -6.00696 29.9717 -41.5732 -5.62507 
29.2781 -41.1746 -6.22971 29.0422 -41.578 -5.65962 28.5696 -41.6185 -5.89343 
22.9257 -41.5983 -5.32857 22.0018 -41.5452 -5.67682 22.2945 -41.817 -5.99752 
21.7727 -41.1644 -6.09754 20.9535 -41.0964 -6.04725 21.3853 -41.483 -5.74354 
20.7506 -41.4535 -5.97808 16.8594 -41.296 -5.43641 17.5157 -41.334 -5.91939 
11.5761 -41.6053 -6.0193 32.8517 -40.9582 -7.16648 32.8447 -41.4594 -6.76237 
33.3119 -41.4669 -7.28756 32.0034 -41.3032 -6.39314 30.8928 -40.9002 -6.93516 
30.1642 -41.0603 -6.78748 29.4421 -41.3228 -6.83163 28.8482 -41.4856 -6.41043 
22.136 -41.5469 -6.39525 21.5659 -41.3699 -6.76602 20.2571 -41.6008 -6.43982 
19.2041 -40.8896 -7.2916 19.0745 -41.1845 -6.69205 18.2703 -41.7128 -6.35367 
15.5357 -41.2231 -6.94567 15.1272 -41.5709 -6.70862 14.7335 -41.4253 -7.1402 
12.3142 -41.3283 -7.29893 11.9068 -41.5985 -6.74314 33.1305 -41.2628 -7.80292 
33.2971 -41.6491 -7.86877 32.3923 -41.0064 -7.89864 31.7332 -41.2013 -7.89193 
31.0066 -41.6727 -7.65677 29.8058 -41.7039 -7.33218 20.9597 -41.3862 -7.40753 
20.0213 -41.4587 -7.59693 19.372 -41.5664 -7.88643 18.0344 -41.9393 -7.77724 
17.6869 -41.1523 -8.10324 18.4869 -41.4399 -8.175 16.9749 -41.489 -7.68436 
16.8734 -40.8997 -7.9988 16.243 -41.7716 -7.29327 15.333 -41.2534 -8.28057 
14.9396 -41.0194 -7.84157 14.9784 -41.8041 -7.54289 12.6492 -41.3895 -8.05384 
32.881 -41.4952 -8.27717 32.3085 -41.5782 -8.31304 19.0579 -41.2398 -8.298 
15.6907 -41.5242 -9.06538 13.4837 -41.2324 -9.07253 12.984 -41.804 -8.56187 
15.1075 -41.0276 -9.94933 15.5126 -41.5081 -10.0615 14.6947 -41.3691 -10.0142 
14.1181 -41.5923 -9.58804 14.9855 -41.6733 -10.2812 23.0233 -42.1801 -3.31771 
23.0021 -42.5259 -2.75189 23.5651 -42.5358 -2.90241 22.7001 -42.714 -2.9946 
23.6942 -42.0916 -3.97301 24.1426 -42.5889 -3.39813 24.3084 -42.7714 -3.98571 
22.9957 -41.7774 -4.12081 22.4604 -42.5926 -4.00988 14.8794 -41.9323 -3.87195 
14.9647 -42.7081 -3.62566 15.4747 -42.3645 -4.03516 13.8608 -42.3218 -3.6271 
13.1575 -42.1027 -3.93289 13.4525 -42.8652 -4.00033 24.063 -42.5041 -4.43635 
23.5645 -42.4574 -4.96847 22.6604 -42.2442 -5.0743 19.967 -42.315 -5.18613 
20.0326 -42.4533 -4.8808 20.156 -42.5523 -5.28155 19.8574 -42.4798 -5.04639 
17.07 -41.929 -5.23285 16.7074 -42.6241 -4.72308 17.4018 -42.6258 -5.26767 
15.9762 -42.3164 -4.35316 12.7236 -42.3547 -4.3034 11.9545 -42.7075 -4.47149 
11.3717 -42.5295 -5.285 32.8239 -42.2997 -6.07074 32.9941 -42.4253 -5.6423 
33.4385 -42.6685 -5.99083 32.0578 -41.8807 -6.01787 32.181 -42.3289 -5.50511 
31.1976 -42.4525 -5.3027 30.1323 -42.4696 -5.36885 28.9788 -42.4712 -5.46151 
27.9295 -41.9232 -6.2199 28.0291 -42.4128 -5.56467 26.7733 -42.147 -6.21897 
27.207 -42.4659 -5.70851 26.5183 -42.8364 -5.9415 23.0011 -42.4047 -5.37389 
21.9542 -42.1978 -5.70954 22.362 -42.7735 -6.01511 21.2291 -41.9065 -6.19543 
21.5663 -42.6608 -5.80073 19.9394 -42.208 -5.86579 20.4777 -42.7224 -6.19724 
19.5148 -42.6139 -5.62302 17.8307 -42.1273 -5.80134 17.8714 -42.6975 -5.58652 
18.3614 -42.4681 -6.01126 11.4543 -42.4467 -6.01386 32.9244 -41.971 -7.41325 
33.0655 -42.8487 -6.49499 32.5196 -42.314 -6.71031 28.9037 -41.7862 -6.94717 
28.0122 -42.0279 -7.14748 27.1618 -41.9118 -6.83215 25.8665 -42.5603 -6.39099 
26.1319 -42.1119 -7.03704 25.224 -42.2531 -7.06392 25.223 -42.4244 -6.71886 
24.7076 -42.7946 -7.08887 21.8777 -42.42 -6.33187 20.8125 -41.9357 -7.01815 
20.407 -42.6289 -7.02316 19.1059 -42.1322 -6.29173 15.7909 -41.9941 -6.90225 
16.3005 -42.49 -7.08461 15.8332 -42.6406 -6.70757 15.146 -42.5707 -6.47554 
14.6282 -42.5439 -6.85406 12.0634 -42.0952 -7.23817 11.6644 -42.4525 -6.69247 
32.836 -41.8457 -8.13638 32.0324 -42.3129 -7.5302 32.1238 -41.8817 -7.94966 
30.9828 -42.2328 -8.13733 31.4062 -42.7399 -7.92101 30.6765 -42.4069 -8.07288 
30.1433 -42.4989 -7.75274 28.9734 -42.6226 -7.5813 27.9319 -42.4713 -7.64283 
27.4341 -42.8013 -8.02509 27.1619 -42.144 -7.68675 26.4855 -42.5319 -8.12353 
25.6478 -42.4009 -7.6161 25.064 -42.4481 -7.37451 20.1454 -42.4895 -7.51033 
19.0225 -42.463 -7.70092 18.9021 -41.8566 -8.00878 17.8839 -42.7752 -7.56795 
17.0113 -42.4736 -7.43126 14.959 -42.7578 -7.48639 15.5063 -42.1883 -8.17498 
12.4907 -42.2538 -7.91352 12.0107 -42.8642 -7.47065 30.9466 -42.7325 -8.30867 
27.0371 -42.5504 -8.24708 22.7896 -42.218 -8.96415 22.9461 -42.6113 -8.6593 
23.4745 -42.5528 -9.10571 22.2561 -42.2071 -9.0352 22.0574 -42.5059 -8.68087 
21.5992 -42.5209 -8.91309 16.1127 -42.0724 -9.08278 16.0276 -42.7852 -8.5747 
16.542 -42.4848 -9.1848 13.4979 -42.2966 -9.07376 13.002 -42.7968 -8.54402 
22.9858 -42.5394 -9.32264 22.0918 -42.6082 -9.3589 16.7111 -42.1825 -9.91245 
17.0628 -42.7915 -9.57913 17.2636 -42.5855 -10.0415 16.0567 -41.7714 -9.85689 
14.536 -42.2316 -10.0732 13.9948 -42.7839 -9.57226 17.0937 -42.5582 -10.6123 
16.5203 -42.4599 -11.0812 16.0817 -42.1725 -10.7208 15.1531 -42.5444 -10.5885 
15.5837 -42.7574 -11.2394 16.992 -42.3418 -12.0386 17.1959 -42.4627 -11.8054 
17.3683 -42.6199 -12.2581 16.0584 -42.6771 -11.4649 16.7352 -42.4971 -11.9007 
16.6818 -42.7149 -12.3034 22.9685 -43.3545 -1.0231 23.1433 -43.4909 -0.774684 
23.2442 -43.4269 -1.03624 22.7322 -43.7976 -0.908459 23.8454 -43.1814 -2.21089 
24.0111 -43.5346 -1.70834 24.4438 -43.5283 -2.19384 23.028 -43.6518 -1.37167 
23.5844 -43.5625 -1.81899 24.161 -42.9488 -2.76854 24.6048 -43.4651 -3.33882 
23.1052 -43.1465 -2.45714 22.4801 -43.6845 -3.11661 24.4236 -43.6178 -4.09079 
[...]
CELL_DATA 26972
SCALARS scalars float
LOOKUP_TABLE default
2013 2013 2013 2013 2013 2013 2013 2013 2013 
2013 2013 2013 2013 2013 2013 2013 2013 2013 
2013 2013 2013 2013 2013 2013 2013 2013 2013 
2013 2013 2013 2013 2013 2013 2013 2013 2013 
2013 2013 2013 2013 2013 2013 2013 2013 2013 
2013 2013 2013 2013 2013 2013 2013 2013 2013 
2013 2013 2013 2013 2013 2013 2013 2013 2013 
2013 2013 2013 2013 2013 2013 2013 2013 2013 
2013 2013 2013 2013 2013 2013 2013 2013 2013 
2013 2013 2013 2013 2013 2013 2013 2013 2013 
2013 2013 2013 2013 2013 2013 2013 2013 2013 
2013 2013 2013 2013 2013 2013 2013 2013 2013 
2013 2013 2013 2013 2013 2013 2013 2013 2013 
2013 2013 2013 2013 2013 2013 2013 2013 2013 
2013 2013 2013 2013 2013 2013 2013 2013 2013 
2013 2013 2013 2013 2013 2013 2013 2013 2013 
2013 2013 2013 2013 2013 2013 2013 2013 2013 
2013 2013 2013 2013 2013 2013 2013 2013 2013 
2013 2013 2013 2013 2013 2013 2013 2013 2013 
2013 2013 2013 2013 2013 2013 2013 2013 2013 
2013 2013 2013 2013 2013 2013 2013 2013 2013 
2013 2013 2013 2013 2013 2013 2013 2013 2013 
2013 2013 2013 2013 2013 2013 2013 2013 2013 
2013 2013 2013 2013 2013 2013 2013 2013 2013 
2013 2013 2013 2013 2013 2013 2013 2013 2013 
2013 2013 2013 2013 2013 2013 2013 2013 2013 
2013 2013 2013 2013 2013 2013 2013 2013 2013 
2013 2013 2013 2013 2013 2013 2013 2013 2013 
2013 2013 2013 2013 2013 2013 2013 2013 2013 
2013 2013 2013 2013 2013 2013 2013 2013 2013 
2013 2013 2013 2013 2013 2013 2013 2013 2013 
2013 2013 2013 2013 2013 2013 2013 2013 2013 
2013 2013 2013 2013 2013 2013 2013 2013 2013 
2013 2013 2013 2013 2013 2013 2013 2013 2013 
2013 2013 2013 2013 2013 2013 2013 2013 2013 
2013 2013 2013 2013 2013 2013 2013 2013 2013 
2013 2013 2013 2013 2013 2013 2013 2013 2013 
2013 2013 2013 2013 2013 2013 2013 2013 2013 
2013 2013 2013 2013 2013 2013 2013 2013 2013 
2013 2013 2013 2013 2013 2013 2013 2013 2013 
2013 2013 2013 2013 2013 2013 2013 2013 2013 
2013 2013 2013 2013 2013 2013 2013 2013 2013 
2013 2013 2013 2013 2013 2013 2013 2013 2013 
2013 2013 2013 2013 2013 2013 2013 2013 2013 
2013 2013 2013 2013 2013 2013 2013 2013 2013 
2013 2013 2013 2013 2013 2013 2013 2013 2013 
2013 2013 2013 2013 2013 2013 2013 2013 2013 
2013 2013 2013 2013 2013 2013 2013 2013 2013 
2013 2013 2013 2013 2013 2013 2013 2013 2013 
2013 2013 2013 2013 2013 2013 2013 2013 2013 
2013 2013 2013 2013 2013 2013 2013 2013 2013 
2013 2013 2013 2013 2013 2013 2013 2013 2013 
2013 2013 2013 2013 2013 2013 2013 2013 2013 
2013 2013 2013 2013 2013 2013 2013 2013 2013 
2013 2013 2013 2013 2013 2013 2013 2013 2013 
2013 2013 2013 2013 2013 2013 2013 2013 2013 
2013 2013 2013 2013 2013 2013 2013 2013 2013 
2013 2013 2013 2013 2013 2013 2013 2013 2013 
2013 2013 2013 2013 2013 2013 2013 2013 2013 
2013 2013 2013 2013 2013 2013 2013 2013 2013 
2013 2013 2013 2013 2013 2013 2013 2013 2013 
2013 2013 2013 2013 2013 2013 2013 2013 2013 
2013 2013 2013 2013 2013 2013 2013 2013 2013 
2013 2013 2013 2013 2013 2013 2013 2013 2013 
2013 2013 2013 2013 2013 2013 2013 2013 2013 
2013 2013 2013 2013 2013 2013 2013 2013 2013 
2013 2013 2013 2013 2013 2013 2013 2013 2013 
2013 2013 2013 2013 2013 2013 2013 2013 2013 
2013 2013 2013 2013 2013 2013 2013 2013 2013 
2013 2013 2013 2013 2013 2013 2013 2013 2013 
2013 2013 2013 2013 2013 2013 2013 2013 2013 
2013 2013 2013 2013 2013 2013 2013 2013 2013 
2013 2013 2013 2013 2013 2013 2013 2013 2013 
2013 2013 2013 2013 2013 2013 2013 2013 2013 
2013 2013 2013 2013 2013 2013 2013 2013 2013 
2013 2013 2013 2013 2013 2013 2013 2013 2013 
2013 2013 2013 2013 2013 2013 2013 2013 2013 
2013 2013 2013 2013 2013 2013 2013 2013 2013 
2013 2013 2013 2013 2013 2013 2013 2013 2013 
2013 2013 2013 2013 2013 2013 2013 2013 2013 
2013 2013 2013 2013 2013 2013 2013 2013 2013 
2013 2013 2013 2013 2013 2013 2013 2013 2013 
2013 2013 2013 2013 2013 2013 2013 2013 2013 
2013 2013 2013 2013 2013 2013 2013 2013 2013 
2013 2013 2013 2013 2013 2013 2013 2013 2013 
2013 2013 2013 2013 2013 2013 2013 2013 2013 
2013 2013 2013 2013 2013 2013 2013 2013 2013 
2013 2013 2013 2013 2013 2013 2013 2013 2013 
2013 2013 2013 2013 2013 2013 2013 2013 2013 
2013 2013 2013 2013 2013 2013 2013 2013 2013 
2013 2013 2013 2013 2013 2013 2013 2013 2013 
2013 2013 2013 2013 2013 2013 2013 2013 2013 
2013 2013 2013 2013 2013 2013 2013 2013 2013 
2013 2013 2013 2013 2013 2013 2013 2013 2013 
2013 2013 2013 2013 2013 2013 2013 2013 2013 
2013 2013 2013 2013 2013 2013 2013 2013 2013 
2013 2013 2013 2013 2013 2013 2013 2013 2013 
2013 2013 2013 2013 2013 2013 2013 2013 2013 
2013 2013 2013 2013 2013 2013 2013 2013 2013 
2013 2013 2013 2013 2013 2013 2013 2013 2013 
2013 2013 2013 2013 2013 2013 2013 2013 2013 
2013 2013 2013 2013 2013 2013 2013 2013 2013 
2013 2013 2013 2013 2013 2013 2013 2013 2013 
2013 2013 2013 2013 2013 2013 2013 2013 2013 
2013 2013 2013 2013 2013 2013 2013 2013 2013 
2013 2013 2013 2013 2013 2013 2013 2013 2013 
2013 2013 2013 2013 2013 2013 2013 2013 2013 
2013 2013 2013 2013 2013 2013 2013 2013 2013 
2013 2013 2013 2013 2013 2013 2013 2013 2013 
2013 2013 2013 2013 2013 2013 2013 2013 2013 
2013 2013 2013 2013 2013 2013 2013 2013 2013 
2013 2013 2013 2013 2013 2013 2013 2013 2013 
2013 2013 2013 2013 2013 2013 2013 2013 2013 
2013 2013 2013 2013 2013 2013 2013 2013 2013 
2013 2013 2013 2013 2013 2013 2013 2013 2013 
2013 2013 2013 2013 2013 2013 2013 2013 2013 
2013 2013 2013 2013 2013 2013 2013 2013 2013 
2013 2013 2013 2013 2013 2013 2013 2013 2013 
2013 2013 2013 2013 2013 2013 2013 2013 2013 
2013 2013 2013 2013 2013 2013 2013 2013 2013 
2013 2013 2013 2013 2013 2013 2013 2013 2013 
2013 2013 2013 2013 2013 2013 2013 2013 2013 
2013 2013 2013 2013 2013 2013 2013 2013 2013 
2013 2013 2013 2013 2013 2013 2013 2013 2013 
2013 2013 2013 2013 2013 2013 2013 2013 2013 
2013 2013 2013 2013 2013 2013 2013 2013 2013 
2013 2013 2013 2013 2013 2013 2013 2013 2013 
2013 2013 2013 2013 2013 2013 2013 2013 2013 
2013 2013 2013 2013 2013 2013 2013 2013 2013 
2013 2013 2013 2013 2013 2013 2013 2013 2013 
2013 2013 2013 2013 2013 2013 2013 2013 2013 
2013 2013 2013 2013 2013 2013 2013 2013 2013 
2013 2013 2013 2013 2013 2013 2013 2013 2013 
2013 2013 2013 2013 2013 2013 2013 2013 2013 
2013 2013 2013 2013 2013 2013 2013 2013 2013 
2013 2013 2013 2013 2013 2013 2013 2013 2013 
2013 2013 2013 2013 2013 2013 2013 2013 2013 
2013 2013 2013 2013 2013 2013 2013 2013 2013 
2013 2013 2013 2013 2013 2013 2013 2013 2013 
2013 2013 2013 2013 2013 2013 2013 2013 2013 
2013 2013 2013 2013 2013 2013 2013 2013 2013 
2013 2013 2013 2013 2013 2013 2013 2013 2013 
2013 2013 2013 2013 2013 2013 2013 2013 2013 
2013 2013 2013 2013 2013 2013 2013 2013 2013 
2013 2013 2013 2013 2013 2013 2013 2013 2013 
2013 2013 2013 2013 2013 2013 2013 2013 2013 
2013 2013 2013 2013 2013 2013 2013 2013 2013 
2013 2013 2013 2013 2013 2013 2013 2013 2013 
2013 2013 2013 2013 2013 2013 2013 2013 2013 
2013 2013 2013 2013 2013 2013 2013 2013 2013 
2013 2013 2013 2013 2013 2013 2013 2013 2013 
2013 2013 2013 2013 2013 2013 2013 2013 2013 
2013 2013 2013 2013 2013 2013 2013 2013 2013 
2013 2013 2013 2013 2013 2013 2013 2013 2013 
2013 2013 2013 2013 2013 2013 2013 2013 2013 
2013 2013 2013 2013 2013 2013 2013 2013 2013 
2013 2013 2013 2013 2013 2013 2013 2013 2013 
2013 2013 2013 2013 2013 2013 2013 2013 2013 
2013 2013 2013 2013 2013 2013 2013 2013 2013 
2013 2013 2013 2013 2013 2013 2013 2013 2013 
2013 2013 2013 2013 2013 2013 2013 2013 2013 
2013 2013 2013 2013 2013 2013 2013 2013 2013 
2013 2013 2013 2013 2013 2013 2013 2013 2013 
2013 2013 2013 2013 2013 2013 2013 2013 2013 
2013 2013 2013 2013 2013 2013 2013 2013 2013 
2013 2013 2013 2013 2013 2013 2013 2013 2013 
2013 2013 2013 2013 2013 2013 2013 2013 2013 
2013 2013 2013 2013 2013 2013 2013 2013 2013 
2013 2013 2013 2013 2013 2013 2013 2013 2013 
2013 2013 2013 2013 2013 2013 2013 2013 2013 
2013 2013 2013 2013 2013 2013 2013 2013 2013 
2013 2013 2013 2013 2013 2013 2013 2013 2013 
2013 2013 2013 2013 2013 2013 2013 2013 2013 
2013 2013 2013 2013 2013 2013 2013 2013 2013 
2013 2013 2013 2013 2013 2013 2013 2013 2013 
2013 2013 2013 2013 2013 2013 2013 2013 2013 
2013 2013 2013 2013 2013 2013 2013 2013 2013 
2013 2013 2013 2013 2013 2013 2013 2013 2013 
2013 2013 2013 2013 2013 2013 2013 2013 2013 
2013 2013 2013 2013 2013 2013 2013 2013 2013 
2013 2013 2013 2013 2013 2013 2013 2013 2013 
2013 2013 2013 2013 2013 2013 2013 2013 2013 
2013 2013 2013 2013 2013 2013 2013 2013 2013 
2013 2013 2013 2013 2013 2013 2013 2013 2013 
2013 2013 2013 2013 2013 2013 2013 2013 2013 
2013 2013 2013 2013 2013 2013 2013 2013 2013 
2013 2013 2013 2013 2013 2013 2013 2013 2013 
2013 2013 2013 2013 2013 2013 2013 2013 2013 
2013 2013 2013 2013 2013 2013 2013 2013 2013 
2013 2013 2013 2013 2013 2013 2013 2013 2013 
2013 2013 2013 2013 2013 2013 2013 2013 2013 
2013 2013 2013 2013 2013 2013 2013 2013 2013 
2013 2013 2013 2013 2013 2013 2013 2013 2013 
2013 2013 2013 2013 2013 2013 2013 2013 2013 
2013 2013 2013 2013 2013 2013 2013 2013 2013 
2013 2013 2013 2013 2013 2013 2013 2013 2013 
2013 2013 2013 2013 2013 2013 2013 2013 2013 
2013 2013 2013 2013 2013 2013 2013 2013 2013 
2013 2013 2013 2013 2013 2013 2013 2013 2013 
2013 2013 2013 2013 2013 2013 2013 2013 2013 
2013 2013 2013 2013 2013 2013 2013 2013 2013 
2013 2013 2013 2013 2013 2013 2013 2013 2013 
2013 2013 2013 2013 2013 2013 2013 2013 2013 
2013 2013 2013 2013 2013 2013 2013 2013 2013 
2013 2013 2013 2013 2013 2013 2013 2013 2013 
2013 2013 2013 2013 2013 2013 2013 2013 2013 
2013 2013 2013 2013 2013 2013 2013 2013 2013 
2013 2013 2013 2013 2013 2013 2013 2013 2013 
2013 2013 2013 2013 2013 2013 2013 2013 2013 
2013 2013 2013 2013 2013 2013 2013 2013 2013 
2013 2013 2013 2013 2013 2013 2013 2013 2013 
2013 2013 2013 2013 2013 2013 2013 2013 2013 
2013 2013 2013 2013 2013 2013 2013 2013 2013 
2013 2013 2013 2013 2013 2013 2013 2013 2013 
2013 2013 2013 2013 2013 2013 2013 2013 2013 
2013 2013 2013 2013 2013 2013 2013 2013 2013 
2013 2013 2013 2013 2013 2013 2013 2013 2013 
2013 2013 2013 2013 2013 2013 2013 2013 2013 
2013 2013 2013 2013 2013 2013 2013 2013 2013 
2013 2013 2013 2013 2013 2013 2013 2013 2013 
2013 2013 2013 2013 2013 2013 2013 2013 2013 
2013 2013 2013 2013 2013 2013 2013 2013 2013 
2013 2013 2013 2013 2013 2013 2013 2013 2013 
2013 2013 2013 2013 2013 2013 2013 2013 2013 
2013 2013 2013 2013 2013 2013 2013 2013 2013 
2013 2013 2013 2013 2013 2013 2013 2013 2013 
2013 2013 2013 2013 2013 2013 2013 2013 2013 
2013 2013 2013 2013 2013 2013 2013 2013 2013 
2013 2013 2013 2013 2013 2013 2013 2013 2013 
2013 2013 2013 2013 2013 2013 2013 2013 2013 
2013 2013 2013 2013 2013 2013 2013 2013 2013 
2013 2013 2013 2013 2013 2013 2013 2013 2013 
2013 2013 2013 2013 2013 2013 2013 2013 2013 
2013 2013 2013 2013 2013 2013 2013 2013 2013 
2013 2013 2013 2013 2013 2013 2013 2013 2013 
2013 2013 2013 2013 2013 2013 2013 2013 2013 
2013 2013 2013 2013 2013 2013 2013 2013 2013 
2013 2013 2013 2013 2013 2013 2013 2013 2013 
2013 2013 2013 2013 2013 2013 2013 2013 2013 
2013 2013 2013 2013 2013 2013 2013 2013 2013 
2013 2013 2013 2013 2013 2013 2013 2013 2013 
2013 2013 2013 2013 2013 2013 2013 2013 2013 
2013 2013 2013 2013 2013 2013 2013 2013 2013 
2013 2013 2013 2013 2013 2013 2013 2013 2013 
2013 2013 2013 2013 2013 2013 2013 2013 2013 
2013 2013 2013 2013 2013 2013 2013 2013 2013 
2013 2013 2013 2013 2013 2013 2013 2013 2013 
2013 2013 2013 2013 2013 2013 2013 2013 2013 
2013 2013 2013 2013 2013 2013 2013 2013 2013 
2013 2013 2013 2013 2013 2013 2013 2013 2013 
2013 2013 2013 2013 2013 2013 2013 2013 2013 
2013 2013 2013 2013 2013 2013 2013 2013 2013 
2013 2013 2013 2013 2013 2013 2013 2013 2013 
2013 2013 2013 2013 2013 2013 2013 2013 2013 
2013 2013 2013 2013 2013 2013 2013 2013 2013 
2013 2013 2013 2013 2013 2013 2013 2013 2013 
2013 2013 2013 2013 2013 2013 2013 2013 2013 
2013 2013 2013 2013 2013 2013 2013 2013 2013 
2013 2013 2013 2013 2013 2013 2013 2013 2013 
2013 2013 2013 2013 2013 2013 2013 2013 2013 
2013 2013 2013 2013 2013 2013 2013 2013 2013 
2013 2013 2013 2013 2013 2013 2013 2013 2013 
2013 2013 2013 2013 2013 2013 2013 2013 2013 
2013 2013 2013 2013 2013 2013 2013 2013 2013 
2013 2013 2013 2013 2013 2013 2013 2013 2013 
2013 2013 2013 2013 2013 2013 2013 2013 2013 
2013 2013 2013 2013 2013 2013 2013 2013 2013 
2013 2013 2013 2013 2013 2013 2013 2013 2013 
2013 2013 2013 2013 2013 2013 2013 2013 2013 
2013 2013 2013 2013 2013 2013 2013 2013 2013 
2013 2013 2013 2013 2013 2013 2013 2013 2013 
2013 2013 2013 2013 2013 2013 2013 2013 2013 
2013 2013 2013 2013 2013 2013 2013 2013 2013 
2013 2013 2013 2013 2013 2013 2013 2013 2013 
2013 2013 2013 2013 2013 2013 2013 2013 2013 
2013 2013 2013 2013 2013 2013 2013 2013 2013 
2013 2013 2013 2013 2013 2013 2013 2013 2013 
2013 2013 2013 2013 2013 2013 2013 2013 2013 
2013 2013 2013 2013 2013 2013 2013 2013 2013 
2013 2013 2013 2013 2013 2013 2013 2013 2013 
2013 2013 2013 2013 2013 2013 2013 2013 2013 
2013 2013 2013 2013 2013 2013 2013 2013 2013 
2013 2013 2013 2013 2013 2013 2013 2013 2013 
2013 2013 2013 2013 2013 2013 2013 2013 2013 
2013 2013 2013 2013 2013 2013 2013 2013 2013 
2013 2013 2013 2013 2013 2013 2013 2013 2013 
2013 2013 2013 2013 2013 2013 2013 2013 2013 
2013 2013 2013 2013 2013 2013 2013 2013 2013 
2013 2013 2013 2013 2013 2013 2013 2013 2013 
2013 2013 2013 2013 2013 2013 2013 2013 2013 
2013 2013 2013 2013 2013 2013 2013 2013 2013 
2013 2013 2013 2013 2013 2013 2013 2013 2013 
2013 2013 2013 2013 2013 2013 2013 2013 2013 
2013 2013 2013 2013 2013 2013 2013 2013 2013 
2013 2013 2013 2013 2013 2013 2013 2013 2013 
2013 2013 2013 2013 2013 2013 2013 2013 2013 
2013 2013 2013 2013 2013 2013 2013 2013 2013 
2013 2013 2013 2013 2013 2013 2013 2013 2013 
2013 2013 2013 2013 2013 2013 2013 2013 2013 
2013 2013 2013 2013 2013 2013 2013 2013 2013 
2013 2013 2013 2013 2013 2013 2013 2013 2013 
2013 2013 2013 2013 2013 2013 2013 2013 2013 
2013 2013 2013 2013 2013 2013 2013 2013 2013 
2013 2013 2013 2013 2013 2013 2013 2013 2013 
2013 2013 2013 2013 2013 2013 2013 2013 2013 
2013 2013 2013 2013 2013 2013 2013 2013 2013 
2013 2013 2013 2013 2013 2013 2013 2013 2013 
2013 2013 2013 2013 2013 2013 2013 2013 2013 
2013 2013 2013 2013 2013 2013 2013 2013 2013 
2013 2013 2013 2013 2013 2013 2013 2013 2013 
2013 2013 2013 2013 2013 2013 2013 2013 2013 
2013 2013 2013 2013 2013 2013 2013 2013 2013 
2013 2013 2013 2013 2013 2013 2013 2013 2013 
2013 2013 2013 2013 2013 2013 2013 2013 2013 
2013 2013 2013 2013 2013 2013 2013 2013 2013 
2013 2013 2013 2013 2013 2013 2013 2013 2013 
2013 2013 2013 2013 2013 2013 2013 2013 2013 
2013 2013 2013 2013 2013 2013 2013 2013 2013 
2013 2013 2013 2013 2013 2013 2013 2013 2013 
2013 2013 2013 2013 2013 2013 2013 2013 2013 
2013 2013 2013 2013 2013 2013 2013 2013 2013 
2013 2013 2013 2013 2013 2013 2013 2013 2013 
2013 2013 2013 2013 2013 2013 2013 2013 2013 
2013 2013 2013 2013 2013 2013 2013 2013 2013 
2013 2013 2013 2013 2013 2013 2013 2013 2013 
2013 2013 2013 2013 2013 2013 2013 2013 2013 
2013 2013 2013 2013 2013 2013 2013 2013 2013 
2013 2013 2013 2013 2013 2013 2013 2013 2013 
2013 2013 2013 2013 2013 2013 2013 2013 2013 
2013 2013 2013 2013 2013 2013 2013 2013 2013 
2013 2013 2013 2013 2013 2013 2013 2013 2013 
2013 2013 2013 2013 2013 2013 2013 2013 2013 
2013 2013 2013 2013 2013 2013 2013 2013 2013 
2013 2013 2013 2013 2013 2013 2013 2013 2013 
2013 2013 2013 2013 2013 2013 2013 2013 2013 
2013 2013 2013 2013 2013 2013 2013 2013 2013 
2013 2013 2013 2013 2013 2013 2013 2013 2013 
2013 2013 2013 2013 2013 2013 2013 2013 2013 
2013 2013 2013 2013 2013 2013 2013 2013 2013 
2013 2013 2013 2013 2013 2013 2013 2013 2013 
2013 2013 2013 2013 2013 2013 2013 2013 2013 
2013 2013 2013 2013 2013 2013 2013 2013 2013 
2013 2013 2013 2013 2013 2013 2013 2013 2013 
2013 2013 2013 2013 2013 2013 2013 2013 2013 
2013 2013 2013 2013 2013 2013 2013 2013 2013 
2013 2013 2013 2013 2013 2013 2013 2013 2013 
2013 2013 2013 2013 2013 2013 2013 2013 2013 
2013 2013 2013 2013 2013 2013 2013 2013 2013 
2013 2013 2013 2013 2013 2013 2013 2013 2013 
2013 2013 2013 2013 2013 2013 2013 2013 2013 
2013 2013 2013 2013 2013 2013 2013 2013 2013 
2013 2013 2013 2013 2013 2013 2013 2013 2013 
2013 2013 2013 2013 2013 2013 2013 2013 2013 
2013 2013 2013 2013 2013 2013 2013 2013 2013 
2013 2013 2013 2013 2013 2013 2013 2013 2013 
2013 2013 2013 2013 2013 2013 2013 2013 2013 
2013 2013 2013 2013 2013 2013 2013 2013 2013 
2013 2013 2013 2013 2013 2013 2013 2013 2013 
2013 2013 2013 2013 2013 2013 2013 2013 2013 
2013 2013 2013 2013 2013 2013 2013 2013 2013 
2013 2013 2013 2013 2013 2013 2013 2013 2013 
2013 2013 2013 2013 2013 2013 2013 2013 2013 
2013 2013 2013 2013 2013 2013 2013 2013 2013 
2013 2013 2013 2013 2013 2013 2013 2013 2013 
2013 2013 2013 2013 2013 2013 2013 2013 2013 
2013 2013 2013 2013 2013 2013 2013 2013 2013 
2013 2013 2013 2013 2013 2013 2013 2013 2013 
2013 2013 2013 2013 2013 2013 2013 2013 2013 
2013 2013 2013 2013 2013 2013 2013 2013 2013 
2013 2013 2013 2013 2013 2013 2013 2013 2013 
2013 2013 2013 2013 2013 2013 2013 2013 2013 
2013 2013 2013 2013 2013 2013 2013 2013 2013 
2013 2013 2013 2013 2013 2013 2013 2013 2013 
2013 2013 2013 2013 2013 2013 2013 2013 2013 
2013 2013 2013 2013 2013 2013 2013 2013 2013 
2013 2013 2013 2013 2013 2013 2013 2013 2013 
2013 2013 2013 2013 2013 2013 2013 2013 2013 
2013 2013 2013 2013 2013 2013 2013 2013 2013 
2013 2013 2013 2013 2013 2013 2013 2013 2013 
2013 2013 2013 2013 2013 2013 2013 2013 2013 
2013 2013 2013 2013 2013 2013 2013 2013 2013 
2013 2013 2013 2013 2013 2013 2013 2013 2013 
2013 2013 2013 2013 2013 2013 2013 2013 2013 
2013 2013 2013 2013 2013 2013 2013 2013 2013 
2013 2013 2013 2013 2013 2013 2013 2013 2013 
2013 2013 2013 2013 2013 2013 2013 2013 2013 
2013 2013 2013 2013 2013 2013 2013 2013 2013 
2013 2013 2013 2013 2013 2013 2013 2013 2013 
2013 2013 2013 2013 2013 2013 2013 2013 2013 
2013 2013 2013 2013 2013 2013 2013 2013 2013 
2013 2013 2013 2013 2013 2013 2013 2013 2013 
2013 2013 2013 2013 2013 2013 2013 2013 2013 
2013 2013 2013 2013 2013 2013 2013 2013 2013 
2013 2013 2013 2013 2013 2013 2013 2013 2013 
2013 2013 2013 2013 2013 2013 2013 2013 2013 
2013 2013 2013 2013 2013 2013 2013 2013 2013 
2013 2013 2013 2013 2013 2013 2013 2013 2013 
2013 2013 2013 2013 2013 2013 2013 2013 2013 
2013 2013 2013 2013 2013 2013 2013 2013 2013 
2013 2013 2013 2013 2013 2013 2013 2013 2013 
2013 2013 2013 2013 2013 2013 2013 2013 2013 
2013 2013 2013 2013 2013 2013 2013 2013 2013 
2013 2013 2013 2013 2013 2013 2013 2013 2013 
2013 2013 2013 2013 2013 2013 2013 2013 2013 
2013 2013 2013 2013 2013 2013 2013 2013 2013 
2013 2013 2013 2013 2013 2013 2013 2013 2013 
2013 2013 2013 2013 2013 2013 2013 2013 2013 
2013 2013 2013 2013 2013 2013 2013 2013 2013 
2013 2013 2013 2013 2013 2013 2013 2013 2013 
2013 2013 2013 2013 2013 2013 2013 2013 2013 
2013 2013 2013 2013 2013 2013 2013 2013 2013 
2013 2013 2013 2013 2013 2013 2013 2013 2013 
2013 2013 2013 2013 2013 2013 2013 2013 2013 
2013 2013 2013 2013 2013 2013 2013 2013 2013 
2013 2013 2013 2013 2013 2013 2013 2013 2013 
2013 2013 2013 2013 2013 2013 2013 2013 2013 
2013 2013 2013 2013 2013 2013 2013 2013 2013 
2013 2013 2013 2013 2013 2013 2013 2013 2013 
2013 2013 2013 2013 2013 2013 2013 2013 2013 
2013 2013 2013 2013 2013 2013 2013 2013 2013 
2013 2013 2013 2013 2013 2013 2013 2013 2013 
2013 2013 2013 2013 2013 2013 2013 2013 2013 
2013 2013 2013 2013 2013 2013 2013 2013 2013 
2013 2013 2013 2013 2013 2013 2013 2013 2013 
2013 2013 2013 2013 2013 2013 2013 2013 2013 
2013 2013 2013 2013 2013 2013 2013 2013 2013 
2013 2013 2013 2013 2013 2013 2013 2013 2013 
2013 2013 2013 2013 2013 2013 2013 2013 2013 
2013 2013 2013 2013 2013 2013 2013 2013 2013 
2013 2013 2013 2013 2013 2013 2013 2013 2013 
2013 2013 2013 2013 2013 2013 2013 2013 2013 
2013 2013 2013 2013 2013 2013 2013 2013 2013 
2013 2013 2013 2013 2013 2013 2013 2013 2013 