# vtk DataFile Version 4.0
vtk output
ASCII
DATASET POLYDATA
POINTS 5508 float
1.71839 7.80888 36.7307 2.01256 7.44686 37.2394 2.47654 7.42626 36.916 
1.5318 7.2272 37.0467 1.82202 7.8866 36.0142 2.35858 7.50284 35.9142 
1.10642 7.58435 36.468 1.08128 7.90319 35.876 0.659395 7.36571 35.9374 
1.825 7.66036 35.3318 1.45061 7.36482 34.6942 1.18265 7.83267 35.1621 
0.600615 7.43567 35.2389 4.02347 7.66507 33.9662 4.06372 7.40931 34.3748 
4.26516 7.32142 34.1079 3.7923 7.49601 34.1064 0.828822 7.33009 34.6871 
4.08179 7.33716 33.6313 2.9774 6.86933 37.6914 3.01645 6.43037 38.2072 
3.59135 6.45909 38.0451 2.55295 6.18719 38.025 3.71359 6.84998 37.0633 
4.23185 6.46803 37.4064 4.48733 6.3216 36.6541 3.14157 7.15139 37.0479 
2.01889 6.6446 37.5007 1.28821 6.41243 37.118 3.88163 6.85246 35.9814 
4.35215 6.48852 35.8058 3.05718 7.15009 36.1551 0.907675 6.83811 36.567 
0.47658 6.44459 35.9817 3.85779 7.04663 34.9057 4.37602 6.60341 34.9221 
3.04388 7.03331 35.0037 2.2669 7.24916 35.141 0.503992 6.54605 35.0355 
4.65071 6.64543 33.9758 3.13958 7.15337 33.8103 1.91599 6.90352 34.0824 
1.07233 6.47507 34.3993 1.41592 6.3836 33.8506 4.70851 6.83423 33.0217 
5.07224 6.48849 33.4667 5.26342 6.33766 32.981 3.73686 7.11011 32.8601 
2.78242 7.08005 32.7573 1.84381 6.88876 32.891 1.39715 6.24271 32.9909 
4.87771 6.54741 32.3927 4.54756 6.48399 31.9615 4.08459 6.81468 32.0571 
2.98557 7.03721 31.9251 2.07939 7.02388 32.0641 1.0194 6.5607 32.3388 
1.18703 6.76942 31.8194 0.719558 6.50742 31.9082 5.7728 6.71197 31.0322 
5.92155 6.55648 31.353 6.26067 6.46448 31.1369 5.23153 6.66002 30.9145 
5.35759 6.52386 31.3921 4.0222 6.4916 31.4372 4.74112 6.44155 31.1275 
3.45787 6.48969 30.8977 3.1838 6.77298 31.1856 2.10252 6.84136 31.1268 
1.36356 6.5153 31.1321 0.818616 6.5007 31.5999 5.9363 6.39827 30.5653 
4.90349 6.44125 30.6214 3.9914 6.50021 30.2466 4.19847 6.39385 29.9525 
3.96833 6.58424 30.0049 2.76318 6.35087 30.5277 3.74754 6.447 30.0988 
1.98973 6.50567 30.6585 3.8388 6.41054 29.7324 3.91888 5.70083 39.8639 
3.98564 5.53964 40.1569 4.20538 5.50276 39.6927 3.79952 5.52501 40.024 
3.99298 5.9118 38.8952 4.57687 5.56768 38.9414 3.48953 5.42297 39.407 
4.76832 5.87339 38.1758 5.20926 5.21177 38.4413 5.28833 5.4533 37.6997 
4.29947 6.23553 37.9399 2.94932 5.61523 38.557 2.31533 5.41303 38.0812 
4.8619 5.98662 37.3146 5.17825 5.35442 37.1134 1.85046 5.54274 37.7275 
0.81668 6.02698 36.8197 1.2165 5.65374 37.3223 0.605725 5.35153 36.8068 
4.91836 5.6432 36.7374 4.57303 5.53395 36.1234 0.378841 5.45954 35.9139 
4.64528 5.62086 34.9436 0.622268 5.56805 35.0643 5.14595 5.97385 33.884 
4.97939 5.47305 34.502 5.48795 5.45901 34.0191 1.34282 5.59348 33.934 
1.02183 5.42832 34.6038 5.74125 5.8536 33.0383 6.00455 5.4563 33.4965 
6.43171 5.43358 32.8145 1.61184 5.33713 32.9685 6.09493 6.08896 31.8537 
6.75297 5.60556 31.8913 4.98046 6.2702 31.9243 1.07575 6.24922 31.7917 
1.61492 5.69238 31.9595 6.77898 5.92743 31.1308 7.16887 5.35569 31.5221 
7.34591 5.20078 30.8342 4.03376 6.32243 30.6375 1.9568 5.94325 30.9161 
2.39855 5.20865 30.9787 2.12014 5.33237 31.4567 6.81652 5.7675 30.3432 
6.02975 6.00272 29.7619 6.66139 5.39574 29.5679 4.95466 6.21676 29.9385 
3.08273 6.06384 29.7146 2.40596 5.41657 30.2664 6.10604 5.76232 29.1131 
6.35512 5.28143 28.9117 5.33734 5.89592 29.0736 4.15751 6.01296 29.1996 
2.98543 5.87289 28.8172 2.11976 5.57538 29.5111 1.92187 5.85694 28.8263 
1.4936 5.4786 29.0931 5.74909 5.39301 28.6134 4.9042 5.5194 28.5874 
3.90721 5.41837 28.427 2.90763 5.60403 28.3056 2.37728 5.50239 27.807 
2.12625 5.83071 28.2237 1.09276 5.62811 28.5072 1.23807 5.7862 27.9956 
0.644659 5.2365 28.0224 1.59073 5.57796 27.479 0.888439 5.43139 27.3677 
3.85463 5.11096 39.7718 3.75665 4.28861 39.5094 4.54601 4.66551 39.3065 
3.21589 4.62204 39.3514 2.98097 5.02443 39.0165 2.59266 4.34451 38.8866 
5.78513 4.96818 37.8451 6.13849 4.39607 38.2831 6.37795 4.56991 37.7088 
5.34746 4.31104 38.7484 1.82064 4.86722 37.8992 2.18088 4.66343 38.3141 
1.53243 4.10966 37.9743 5.95861 4.67071 37.1825 6.32559 4.27355 37.1926 
5.3876 4.55496 37.2392 5.71423 4.49735 36.8791 4.90993 5.04106 36.8154 
4.61298 4.35912 36.846 1.13082 4.70475 37.4856 0.528746 4.43357 36.8413 
5.97144 4.46587 36.8056 4.48781 4.49822 35.9651 0.512948 4.47337 35.9169 
5.02908 4.97059 34.8978 5.05523 4.13804 35.4418 5.50006 4.56032 34.8591 
0.85252 4.8606 35.1098 1.24482 4.66101 34.7019 0.911025 4.11123 35.4147 
5.98309 4.97799 34.0102 5.95753 4.51124 34.5244 6.49483 4.48644 34.019 
1.66812 4.59067 33.8979 6.82479 4.85661 33.1765 7.02428 4.48129 33.458 
7.43379 4.46385 32.7879 1.93495 4.79844 33.0488 2.32438 4.47979 32.8767 
2.03353 4.452 33.452 7.07455 5.08533 32.2604 7.57907 4.53662 31.6246 
2.02155 5.05514 32.2543 2.40812 4.52347 31.9011 7.55042 4.50582 30.914 
2.34238 4.5948 31.0056 7.15513 5.12989 30.1046 7.33388 4.41109 30.3023 
2.02331 4.63816 30.4767 1.64149 5.04565 29.7756 0.927679 4.765 29.6874 
1.31198 4.46155 30.3889 0.653949 4.21639 30.1617 6.86237 4.40828 29.6643 
6.45303 4.58346 29.0903 0.961952 5.17797 28.9774 0.518597 4.52342 29.0309 
5.93556 4.59888 28.6124 4.99154 4.77925 28.3051 3.99833 4.87234 27.8641 
4.48194 4.1773 27.9365 3.09857 5.23017 27.815 0.419697 4.38792 28.0611 
3.91016 4.49348 27.452 3.42707 4.16371 26.9694 3.2343 4.80909 27.2287 
2.1062 5.05626 26.9852 1.03461 5.09689 26.7521 0.517258 4.61935 27.1415 
2.63198 4.36014 26.663 1.83776 4.49611 26.3855 1.39588 4.25453 26.029 
1.18261 4.74119 26.1781 0.572667 4.32318 26.0801 1.00244 4.22233 25.4867 
4.80681 3.81985 39.8073 4.98679 3.51048 40.1229 5.15927 3.57231 39.7661 
4.77303 3.49307 40.0412 5.06133 3.99937 39.2931 5.54482 3.2124 38.9332 
4.32613 3.46246 39.7322 3.02764 3.47208 39.5428 2.29675 3.39327 39.0367 
6.84448 3.85223 37.8427 6.75952 3.49862 38.2033 7.25195 3.34804 37.9801 
5.99179 3.69485 38.5025 1.81979 3.46477 38.5739 1.27026 3.33543 38.073 
7.07424 3.36128 37.7879 6.22834 3.62637 37.513 5.88126 4.22769 36.9569 
5.08642 3.53989 37.5007 4.4508 3.36601 37.0501 0.916603 3.7304 37.5678 
0.503855 3.34986 37.0672 4.54313 3.5198 36.1286 0.606497 3.46993 36.1445 
5.99179 4.10285 34.8409 5.99111 3.36797 35.3134 6.52866 3.58503 34.8501 
5.15652 3.27191 35.6659 1.47196 3.69758 34.9222 0.931309 3.51969 35.6069 
7.00851 4.00064 33.9805 6.99462 3.49743 34.5107 7.51555 3.47747 34.0249 
2.15525 3.97562 33.843 2.58547 3.49283 33.933 2.03335 3.46834 34.4767 
7.85537 3.87224 33.152 8.1052 3.33277 33.5454 8.35715 3.38167 32.8453 
2.81099 3.86171 32.9738 3.26615 3.24829 33.1895 3.11016 3.51898 33.419 
8.02936 3.95392 32.2587 8.37166 3.20029 32.0432 2.9941 3.52748 32.7551 
2.1783 3.40875 32.5122 1.84175 3.916 31.6225 1.39863 3.31862 32.0541 
7.98327 3.61662 31.5978 7.55908 3.52172 30.918 1.80142 4.21537 30.9532 
1.09284 3.54069 31.5552 1.12293 3.97026 30.9918 0.591131 3.37046 31.055 
7.12174 3.57277 30.2524 7.04011 3.98465 29.9375 6.65029 3.30886 29.8505 
0.420726 3.51968 29.9509 6.1049 3.53248 29.3208 5.90956 3.91461 28.8518 
5.45211 3.27928 28.9991 0.43032 3.53114 28.9049 5.03437 3.53976 28.5378 
4.37016 3.41387 28.0418 0.434978 3.53148 27.9004 4.00847 3.81302 27.4982 
3.47009 3.18374 26.9431 0.406805 3.52403 26.9039 2.81316 3.58478 26.4548 
2.02928 3.82732 26.2738 1.59445 3.72819 25.7835 0.388322 3.37457 26.0822 
4.83926 3.76872 25.0612 4.81542 3.29245 25.1766 5.16346 3.58591 24.987 
4.3132 3.73354 24.917 4.27569 3.52707 25.2229 3.65715 3.32586 25.1411 
1.79804 3.88544 24.9109 2.0964 3.41284 25.3963 2.52534 3.57507 24.7972 
1.15739 3.9366 24.6162 0.617199 3.66016 25.2311 4.85482 3.65455 24.7954 
4.17768 3.27678 24.5563 3.00241 3.51396 24.4009 3.38129 3.30767 23.9227 
2.71976 3.74709 24.1529 2.03689 3.84115 23.9918 1.4328 3.56503 24.1263 
0.907535 3.60182 24.5635 2.985 3.35916 23.5374 2.26754 3.28197 23.6257 
5.10849 3.16288 39.8158 3.68099 2.90263 40.0225 3.75446 2.20849 40.2483 
4.30832 2.64673 39.9401 3.06605 2.85016 40.058 3.03668 2.30407 40.3547 
2.47502 2.46776 40.0491 6.10091 2.75927 39.0354 5.73266 2.40852 39.3047 
6.21178 2.49709 39.0303 4.80092 2.38505 39.7123 1.94201 2.94495 38.9986 
2.1292 2.70692 39.4495 1.5209 2.23502 39.1254 6.89923 3.19437 37.9232 
5.95934 3.21213 38.111 5.9579 2.60547 38.8487 4.99109 2.93832 38.0191 
5.26493 2.35553 38.4115 4.66334 2.46269 37.6515 0.827477 2.97529 37.8535 
1.11223 2.60089 38.3898 0.599587 2.338 37.8798 4.56249 2.7042 36.7525 
0.567174 2.50141 36.9696 4.7926 2.90323 36.0887 4.87584 2.4627 36.4048 
5.27178 2.52109 36.0056 1.0276 2.94717 35.9057 1.43146 2.43567 35.9821 
0.886938 2.40645 36.5097 7.01477 3.09434 34.8483 7.04081 2.36986 35.3037 
7.55849 2.55356 34.8768 6.05445 2.4369 35.6124 2.00285 2.97687 34.9649 
2.54068 2.50808 34.9609 1.98734 2.48318 35.453 7.81883 2.91553 34.2775 
7.9954 2.48996 34.5208 8.4388 2.61074 33.7682 3.0028 3.0051 34.0282 
3.40155 2.35347 33.8612 3.16726 2.393 34.4878 8.70655 2.66646 32.6281 
2.94799 2.43008 33.3612 2.76032 3.07559 32.9439 2.12434 2.87669 32.9756 
2.079 2.34204 33.2654 1.47394 2.46664 33.0044 8.65723 2.46015 31.903 
0.848914 3.05609 31.8621 1.11683 2.72448 32.4577 0.551022 2.34279 32.0597 
8.16405 2.60883 31.4215 7.55965 2.19436 30.9435 0.417861 2.48214 30.9774 
6.95364 2.56692 30.4204 6.35086 2.38483 30.016 0.452307 2.50433 29.9359 
5.99928 2.69421 29.6663 5.10594 2.4065 29.4638 4.99332 2.90616 28.9764 
4.47262 2.4552 28.9684 0.474844 2.48211 28.9372 4.16574 2.7181 28.3994 
3.92472 3.0807 27.7934 3.62577 2.34897 28.0018 0.442673 2.48074 27.9406 
3.44633 2.32447 27.1033 0.401284 2.46992 26.9292 3.11608 3.04187 25.8669 
3.44248 2.42064 26.275 2.28211 3.26059 25.9034 0.502726 2.55253 25.8791 
4.91232 3.15645 24.7517 4.66812 2.58587 24.8928 3.96702 2.54857 25.4355 
3.05085 3.2383 24.8908 0.901212 2.18181 25.3658 0.986341 3.05461 24.811 
1.41 2.52317 24.7667 4.45502 2.36355 24.1308 3.88488 2.95697 24.0237 
2.13897 2.17416 24.3744 1.74191 2.97726 24.1503 2.4145 2.65424 23.8084 
3.8099 2.66312 23.532 3.16612 2.45415 23.5015 4.22331 2.05016 39.9619 
3.64168 1.61698 40.1301 2.94423 1.59094 40.3578 1.87132 2.03272 39.8984 
[...]
CELL_DATA 11052
SCALARS scalars float
LOOKUP_TABLE default
2023 2023 2023 2023 2023 2023 2023 2023 2023 
2023 2023 2023 2023 2023 2023 2023 2023 2023 
2023 2023 2023 2023 2023 2023 2023 2023 2023 
2023 2023 2023 2023 2023 2023 2023 2023 2023 
2023 2023 2023 2023 2023 2023 2023 2023 2023 
2023 2023 2023 2023 2023 2023 2023 2023 2023 
2023 2023 2023 2023 2023 2023 2023 2023 2023 
2023 2023 2023 2023 2023 2023 2023 2023 2023 
2023 2023 2023 2023 2023 2023 2023 2023 2023 
2023 2023 2023 2023 2023 2023 2023 2023 2023 
2023 2023 2023 2023 2023 2023 2023 2023 2023 
2023 2023 2023 2023 2023 2023 2023 2023 2023 
2023 2023 2023 2023 2023 2023 2023 2023 2023 
2023 2023 2023 2023 2023 2023 2023 2023 2023 
2023 2023 2023 2023 2023 2023 2023 2023 2023 
2023 2023 2023 2023 2023 2023 2023 2023 2023 
2023 2023 2023 2023 2023 2023 2023 2023 2023 
2023 2023 2023 2023 2023 2023 2023 2023 2023 
2023 2023 2023 2023 2023 2023 2023 2023 2023 
2023 2023 2023 2023 2023 2023 2023 2023 2023 
2023 2023 2023 2023 2023 2023 2023 2023 2023 
2023 2023 2023 2023 2023 2023 2023 2023 2023 
2023 2023 2023 2023 2023 2023 2023 2023 2023 
2023 2023 2023 2023 2023 2023 2023 2023 2023 
2023 2023 2023 2023 2023 2023 2023 2023 2023 
2023 2023 2023 2023 2023 2023 2023 2023 2023 
2023 2023 2023 2023 2023 2023 2023 2023 2023 
2023 2023 2023 2023 2023 2023 2023 2023 2023 
2023 2023 2023 2023 2023 2023 2023 2023 2023 
2023 2023 2023 2023 2023 2023 2023 2023 2023 
2023 2023 2023 2023 2023 2023 2023 2023 2023 
2023 2023 2023 2023 2023 2023 2023 2023 2023 
2023 2023 2023 2023 2023 2023 2023 2023 2023 
2023 2023 2023 2023 2023 2023 2023 2023 2023 
2023 2023 2023 2023 2023 2023 2023 2023 2023 
2023 2023 2023 2023 2023 2023 2023 2023 2023 
2023 2023 2023 2023 2023 2023 2023 2023 2023 
2023 2023 2023 2023 2023 2023 2023 2023 2023 
2023 2023 2023 2023 2023 2023 2023 2023 2023 
2023 2023 2023 2023 2023 2023 2023 2023 2023 
2023 2023 2023 2023 2023 2023 2023 2023 2023 
2023 2023 2023 2023 2023 2023 2023 2023 2023 
2023 2023 2023 2023 2023 2023 2023 2023 2023 
2023 2023 2023 2023 2023 2023 2023 2023 2023 
2023 2023 2023 2023 2023 2023 2023 2023 2023 
2023 2023 2023 2023 2023 2023 2023 2023 2023 
2023 2023 2023 2023 2023 2023 2023 2023 2023 
2023 2023 2023 2023 2023 2023 2023 2023 2023 
2023 2023 2023 2023 2023 2023 2023 2023 2023 
2023 2023 2023 2023 2023 2023 2023 2023 2023 
2023 2023 2023 2023 2023 2023 2023 2023 2023 
2023 2023 2023 2023 2023 2023 2023 2023 2023 
2023 2023 2023 2023 2023 2023 2023 2023 2023 
2023 2023 2023 2023 2023 2023 2023 2023 2023 
2023 2023 2023 2023 2023 2023 2023 2023 2023 
2023 2023 2023 2023 2023 2023 2023 2023 2023 
2023 2023 2023 2023 2023 2023 2023 2023 2023 
2023 2023 2023 2023 2023 2023 2023 2023 2023 
2023 2023 2023 2023 2023 2023 2023 2023 2023 
2023 2023 2023 2023 2023 2023 2023 2023 2023 
2023 2023 2023 2023 2023 2023 2023 2023 2023 
2023 2023 2023 2023 2023 2023 2023 2023 2023 
2023 2023 2023 2023 2023 2023 2023 2023 2023 
2023 2023 2023 2023 2023 2023 2023 2023 2023 
2023 2023 2023 2023 2023 2023 2023 2023 2023 
2023 2023 2023 2023 2023 2023 2023 2023 2023 
2023 2023 2023 2023 2023 2023 2023 2023 2023 
2023 2023 2023 2023 2023 2023 2023 2023 2023 
2023 2023 2023 2023 2023 2023 2023 2023 2023 
2023 2023 2023 2023 2023 2023 2023 2023 2023 
2023 2023 2023 2023 2023 2023 2023 2023 2023 
2023 2023 2023 2023 2023 2023 2023 2023 2023 
2023 2023 2023 2023 2023 2023 2023 2023 2023 
2023 2023 2023 2023 2023 2023 2023 2023 2023 
2023 2023 2023 2023 2023 2023 2023 2023 2023 
2023 2023 2023 2023 2023 2023 2023 2023 2023 
2023 2023 2023 2023 2023 2023 2023 2023 2023 
2023 2023 2023 2023 2023 2023 2023 2023 2023 
2023 2023 2023 2023 2023 2023 2023 2023 2023 
2023 2023 2023 2023 2023 2023 2023 2023 2023 
2023 2023 2023 2023 2023 2023 2023 2023 2023 
2023 2023 2023 2023 2023 2023 2023 2023 2023 
2023 2023 2023 2023 2023 2023 2023 2023 2023 
2023 2023 2023 2023 2023 2023 2023 2023 2023 
2023 2023 2023 2023 2023 2023 2023 2023 2023 
2023 2023 2023 2023 2023 2023 2023 2023 2023 
2023 2023 2023 2023 2023 2023 2023 2023 2023 
2023 2023 2023 2023 2023 2023 2023 2023 2023 
2023 2023 2023 2023 2023 2023 2023 2023 2023 
2023 2023 2023 2023 2023 2023 2023 2023 2023 
2023 2023 2023 2023 2023 2023 2023 2023 2023 
2023 2023 2023 2023 2023 2023 2023 2023 2023 
2023 2023 2023 2023 2023 2023 2023 2023 2023 
2023 2023 2023 2023 2023 2023 2023 2023 2023 
2023 2023 2023 2023 2023 2023 2023 2023 2023 
2023 2023 2023 2023 2023 2023 2023 2023 2023 
2023 2023 2023 2023 2023 2023 2023 2023 2023 
2023 2023 2023 2023 2023 2023 2023 2023 2023 
2023 2023 2023 2023 2023 2023 2023 2023 2023 
2023 2023 2023 2023 2023 2023 2023 2023 2023 
2023 2023 2023 2023 2023 2023 2023 2023 2023 
2023 2023 2023 2023 2023 2023 2023 2023 2023 
2023 2023 2023 2023 2023 2023 2023 2023 2023 
2023 2023 2023 2023 2023 2023 2023 2023 2023 
2023 2023 2023 2023 2023 2023 2023 2023 2023 
2023 2023 2023 2023 2023 2023 2023 2023 2023 
2023 2023 2023 2023 2023 2023 2023 2023 2023 
2023 2023 2023 2023 2023 2023 2023 2023 2023 
2023 2023 2023 2023 2023 2023 2023 2023 2023 
2023 2023 2023 2023 2023 2023 2023 2023 2023 
2023 2023 2023 2023 2023 2023 2023 2023 2023 
2023 2023 2023 2023 2023 2023 2023 2023 2023 
2023 2023 2023 2023 2023 2023 2023 2023 2023 
2023 2023 2023 2023 2023 2023 2023 2023 2023 
2023 2023 2023 2023 2023 2023 2023 2023 2023 
2023 2023 2023 2023 2023 2023 2023 2023 2023 
2023 2023 2023 2023 2023 2023 2023 2023 2023 
2023 2023 2023 2023 2023 2023 2023 2023 2023 
2023 2023 2023 2023 2023 2023 2023 2023 2023 
2023 2023 2023 2023 2023 2023 2023 2023 2023 
2023 2023 2023 2023 2023 2023 2023 2023 2023 
2023 2023 2023 2023 2023 2023 2023 2023 2023 
2023 2023 2023 2023 2023 2023 2023 2023 2023 
2023 2023 2023 2023 2023 2023 2023 2023 2023 
2023 2023 2023 2023 2023 2023 2023 2023 2023 
2023 2023 2023 2023 2023 2023 2023 2023 2023 
2023 2023 2023 2023 2023 2023 2023 2023 2023 
2023 2023 2023 2023 2023 2023 2023 2023 2023 
2023 2023 2023 2023 2023 2023 2023 2023 2023 
2023 2023 2023 2023 2023 2023 2023 2023 2023 
2023 2023 2023 2023 2023 2023 2023 2023 2023 
2023 2023 2023 2023 2023 2023 2023 2023 2023 
2023 2023 2023 2023 2023 2023 2023 2023 2023 
2023 2023 2023 2023 2023 2023 2023 2023 2023 
2023 2023 2023 2023 2023 2023 2023 2023 2023 
2023 2023 2023 2023 2023 2023 2023 2023 2023 
2023 2023 2023 2023 2023 2023 2023 2023 2023 
2023 2023 2023 2023 2023 2023 2023 2023 2023 
2023 2023 2023 2023 2023 2023 2023 2023 2023 
2023 2023 2023 2023 2023 2023 2023 2023 2023 
2023 2023 2023 2023 2023 2023 2023 2023 2023 
2023 2023 2023 2023 2023 2023 2023 2023 2023 
2023 2023 2023 2023 2023 2023 2023 2023 2023 
2023 2023 2023 2023 2023 2023 2023 2023 2023 
2023 2023 2023 2023 2023 2023 2023 2023 2023 
2023 2023 2023 2023 2023 2023 2023 2023 2023 
2023 2023 2023 2023 2023 2023 2023 2023 2023 
2023 2023 2023 2023 2023 2023 2023 2023 2023 
2023 2023 2023 2023 2023 2023 2023 2023 2023 
2023 2023 2023 2023 2023 2023 2023 2023 2023 
2023 2023 2023 2023 2023 2023 2023 2023 2023 
2023 2023 2023 2023 2023 2023 2023 2023 2023 
2023 2023 2023 2023 2023 2023 2023 2023 2023 
2023 2023 2023 2023 2023 2023 2023 2023 2023 
2023 2023 2023 2023 2023 2023 2023 2023 2023 
2023 2023 2023 2023 2023 2023 2023 2023 2023 
2023 2023 2023 2023 2023 2023 2023 2023 2023 
2023 2023 2023 2023 2023 2023 2023 2023 2023 
2023 2023 2023 2023 2023 2023 2023 2023 2023 
2023 2023 2023 2023 2023 2023 2023 2023 2023 
2023 2023 2023 2023 2023 2023 2023 2023 2023 
2023 2023 2023 2023 2023 2023 2023 2023 2023 
2023 2023 2023 2023 2023 2023 2023 2023 2023 
2023 2023 2023 2023 2023 2023 2023 2023 2023 
2023 2023 2023 2023 2023 2023 2023 2023 2023 
2023 2023 2023 2023 2023 2023 2023 2023 2023 
2023 2023 2023 2023 2023 2023 2023 2023 2023 
2023 2023 2023 2023 2023 2023 2023 2023 2023 
2023 2023 2023 2023 2023 2023 2023 2023 2023 
2023 2023 2023 2023 2023 2023 2023 2023 2023 
2023 2023 2023 2023 2023 2023 2023 2023 2023 
2023 2023 2023 2023 2023 2023 2023 2023 2023 
2023 2023 2023 2023 2023 2023 2023 2023 2023 
2023 2023 2023 2023 2023 2023 2023 2023 2023 
2023 2023 2023 2023 2023 2023 2023 2023 2023 
2023 2023 2023 2023 2023 2023 2023 2023 2023 
2023 2023 2023 2023 2023 2023 2023 2023 2023 
2023 2023 2023 2023 2023 2023 2023 2023 2023 
2023 2023 2023 2023 2023 2023 2023 2023 2023 
2023 2023 2023 2023 2023 2023 2023 2023 2023 
2023 2023 2023 2023 2023 2023 2023 2023 2023 
2023 2023 2023 2023 2023 2023 2023 2023 2023 
2023 2023 2023 2023 2023 2023 2023 2023 2023 
2023 2023 2023 2023 2023 2023 2023 2023 2023 
2023 2023 2023 2023 2023 2023 2023 2023 2023 
2023 2023 2023 2023 2023 2023 2023 2023 2023 
2023 2023 2023 2023 2023 2023 2023 2023 2023 
2023 2023 2023 2023 2023 2023 2023 2023 2023 
2023 2023 2023 2023 2023 2023 2023 2023 2023 
2023 2023 2023 2023 2023 2023 2023 2023 2023 
2023 2023 2023 2023 2023 2023 2023 2023 2023 
2023 2023 2023 2023 2023 2023 2023 2023 2023 
2023 2023 2023 2023 2023 2023 2023 2023 2023 
2023 2023 2023 2023 2023 2023 2023 2023 2023 
2023 2023 2023 2023 2023 2023 2023 2023 2023 
2023 2023 2023 2023 2023 2023 2023 2023 2023 
2023 2023 2023 2023 2023 2023 2023 2023 2023 
2023 2023 2023 2023 2023 2023 2023 2023 2023 
2023 2023 2023 2023 2023 2023 2023 2023 2023 
2023 2023 2023 2023 2023 2023 2023 2023 2023 
2023 2023 2023 2023 2023 2023 2023 2023 2023 
2023 2023 2023 2023 2023 2023 2023 2023 2023 
2023 2023 2023 2023 2023 2023 2023 2023 2023 
2023 2023 2023 2023 2023 2023 2023 2023 2023 
2023 2023 2023 2023 2023 2023 2023 2023 2023 
2023 2023 2023 2023 2023 2023 2023 2023 2023 
2023 2023 2023 2023 2023 2023 2023 2023 2023 
2023 2023 2023 2023 2023 2023 2023 2023 2023 
2023 2023 2023 2023 2023 2023 2023 2023 2023 
2023 2023 2023 2023 2023 2023 2023 2023 2023 
2023 2023 2023 2023 2023 2023 2023 2023 2023 
2023 2023 2023 2023 2023 2023 2023 2023 2023 
2023 2023 2023 2023 2023 2023 2023 2023 2023 
2023 2023 2023 2023 2023 2023 2023 2023 2023 
2023 2023 2023 2023 2023 2023 2023 2023 2023 
2023 2023 2023 2023 2023 2023 2023 2023 2023 
2023 2023 2023 2023 2023 2023 2023 2023 2023 
2023 2023 2023 2023 2023 2023 2023 2023 2023 
2023 2023 2023 2023 2023 2023 2023 2023 2023 
2023 2023 2023 2023 2023 2023 2023 2023 2023 
2023 2023 2023 2023 2023 2023 2023 2023 2023 
2023 2023 2023 2023 2023 2023 2023 2023 2023 
2023 2023 2023 2023 2023 2023 2023 2023 2023 
2023 2023 2023 2023 2023 2023 2023 2023 2023 
2023 2023 2023 2023 2023 2023 2023 2023 2023 
2023 2023 2023 2023 2023 2023 2023 2023 2023 
2023 2023 2023 2023 2023 2023 2023 2023 2023 
2023 2023 2023 2023 2023 2023 2023 2023 2023 
2023 2023 2023 2023 2023 2023 2023 2023 2023 
2023 2023 2023 2023 2023 2023 2023 2023 2023 
2023 2023 2023 2023 2023 2023 2023 2023 2023 
2023 2023 2023 2023 2023 2023 2023 2023 2023 
2023 2023 2023 2023 2023 2023 2023 2023 2023 
2023 2023 2023 2023 2023 2023 2023 2023 2023 
2023 2023 2023 2023 2023 2023 2023 2023 2023 
2023 2023 2023 2023 2023 2023 2023 2023 2023 
2023 2023 2023 2023 2023 2023 2023 2023 2023 
2023 2023 2023 2023 2023 2023 2023 2023 2023 
2023 2023 2023 2023 2023 2023 2023 2023 2023 
2023 2023 2023 2023 2023 2023 2023 2023 2023 
2023 2023 2023 2023 2023 2023 2023 2023 2023 
2023 2023 2023 2023 2023 2023 2023 2023 2023 
2023 2023 2023 2023 2023 2023 2023 2023 2023 
2023 2023 2023 2023 2023 2023 2023 2023 2023 
2023 2023 2023 2023 2023 2023 2023 2023 2023 
2023 2023 2023 2023 2023 2023 2023 2023 2023 
2023 2023 2023 2023 2023 2023 2023 2023 2023 
2023 2023 2023 2023 2023 2023 2023 2023 2023 
2023 2023 2023 2023 2023 2023 2023 2023 2023 
2023 2023 2023 2023 2023 2023 2023 2023 2023 
2023 2023 2023 2023 2023 2023 2023 2023 2023 
2023 2023 2023 2023 2023 2023 2023 2023 2023 
2023 2023 2023 2023 2023 2023 2023 2023 2023 
2023 2023 2023 2023 2023 2023 2023 2023 2023 
2023 2023 2023 2023 2023 2023 2023 2023 2023 
2023 2023 2023 2023 2023 2023 2023 2023 2023 
2023 2023 2023 2023 2023 2023 2023 2023 2023 
2023 2023 2023 2023 2023 2023 2023 2023 2023 
2023 2023 2023 2023 2023 2023 2023 2023 2023 
2023 2023 2023 2023 2023 2023 2023 2023 2023 
2023 2023 2023 2023 2023 2023 2023 2023 2023 
2023 2023 2023 2023 2023 2023 2023 2023 2023 
2023 2023 2023 2023 2023 2023 2023 2023 2023 
2023 2023 2023 2023 2023 2023 2023 2023 2023 
2023 2023 2023 2023 2023 2023 2023 2023 2023 
2023 2023 2023 2023 2023 2023 2023 2023 2023 
2023 2023 2023 2023 2023 2023 2023 2023 2023 
2023 2023 2023 2023 2023 2023 2023 2023 2023 
2023 2023 2023 2023 2023 2023 2023 2023 2023 
2023 2023 2023 2023 2023 2023 2023 2023 2023 
2023 2023 2023 2023 2023 2023 2023 2023 2023 
2023 2023 2023 2023 2023 2023 2023 2023 2023 
2023 2023 2023 2023 2023 2023 2023 2023 2023 
2023 2023 2023 2023 2023 2023 2023 2023 2023 
2023 2023 2023 2023 2023 2023 2023 2023 2023 
2023 2023 2023 2023 2023 2023 2023 2023 2023 
2023 2023 2023 2023 2023 2023 2023 2023 2023 
2023 2023 2023 2023 2023 2023 2023 2023 2023 
2023 2023 2023 2023 2023 2023 2023 2023 2023 
2023 2023 2023 2023 2023 2023 2023 2023 2023 
2023 2023 2023 2023 2023 2023 2023 2023 2023 
2023 2023 2023 2023 2023 2023 2023 2023 2023 
2023 2023 2023 2023 2023 2023 2023 2023 2023 
2023 2023 2023 2023 2023 2023 2023 2023 2023 
2023 2023 2023 2023 2023 2023 2023 2023 2023 
2023 2023 2023 2023 2023 2023 2023 2023 2023 
2023 2023 2023 2023 2023 2023 2023 2023 2023 
2023 2023 2023 2023 2023 2023 2023 2023 2023 
2023 2023 2023 2023 2023 2023 2023 2023 2023 
2023 2023 2023 2023 2023 2023 2023 2023 2023 
2023 2023 2023 2023 2023 2023 2023 2023 2023 
2023 2023 2023 2023 2023 2023 2023 2023 2023 
2023 2023 2023 2023 2023 2023 2023 2023 2023 
2023 2023 2023 2023 2023 2023 2023 2023 2023 
2023 2023 2023 2023 2023 2023 2023 2023 2023 
2023 2023 2023 2023 2023 2023 2023 2023 2023 
2023 2023 2023 2023 2023 2023 2023 2023 2023 
2023 2023 2023 2023 2023 2023 2023 2023 2023 
2023 2023 2023 2023 2023 2023 2023 2023 2023 
2023 2023 2023 2023 2023 2023 2023 2023 2023 
2023 2023 2023 2023 2023 2023 2023 2023 2023 
2023 2023 2023 2023 2023 2023 2023 2023 2023 
2023 2023 2023 2023 2023 2023 2023 2023 2023 
2023 2023 2023 2023 2023 2023 2023 2023 2023 
2023 2023 2023 2023 2023 2023 2023 2023 2023 
2023 2023 2023 2023 2023 2023 2023 2023 2023 
2023 2023 2023 2023 2023 2023 2023 2023 2023 
2023 2023 2023 2023 2023 2023 2023 2023 2023 
2023 2023 2023 2023 2023 2023 2023 2023 2023 
2023 2023 2023 2023 2023 2023 2023 2023 2023 
2023 2023 2023 2023 2023 2023 2023 2023 2023 
2023 2023 2023 2023 2023 2023 2023 2023 2023 
2023 2023 2023 2023 2023 2023 2023 2023 2023 
2023 2023 2023 2023 2023 2023 2023 2023 2023 
2023 2023 2023 2023 2023 2023 2023 2023 2023 
2023 2023 2023 2023 2023 2023 2023 2023 2023 
2023 2023 2023 2023 2023 2023 2023 2023 2023 
2023 2023 2023 2023 2023 2023 2023 2023 2023 
2023 2023 2023 2023 2023 2023 2023 2023 2023 
2023 2023 2023 2023 2023 2023 2023 2023 2023 
2023 2023 2023 2023 2023 2023 2023 2023 2023 
2023 2023 2023 2023 2023 2023 2023 2023 2023 
2023 2023 2023 2023 2023 2023 2023 2023 2023 
2023 2023 2023 2023 2023 2023 2023 2023 2023 
2023 2023 2023 2023 2023 2023 2023 2023 2023 
2023 2023 2023 2023 2023 2023 2023 2023 2023 
2023 2023 2023 2023 2023 2023 2023 2023 2023 
2023 2023 2023 2023 2023 2023 2023 2023 2023 
2023 2023 2023 2023 2023 2023 2023 2023 2023 
2023 2023 2023 2023 2023 2023 2023 2023 2023 
2023 2023 2023 2023 2023 2023 2023 2023 2023 
2023 2023 2023 2023 2023 2023 2023 2023 2023 
2023 2023 2023 2023 2023 2023 2023 2023 2023 
2023 2023 2023 2023 2023 2023 2023 2023 2023 
2023 2023 2023 2023 2023 2023 2023 2023 2023 
2023 2023 2023 2023 2023 2023 2023 2023 2023 
2023 2023 2023 2023 2023 2023 2023 2023 2023 
2023 2023 2023 2023 2023 2023 2023 2023 2023 
2023 2023 2023 2023 2023 2023 2023 2023 2023 
2023 2023 2023 2023 2023 2023 2023 2023 2023 
2023 2023 2023 2023 2023 2023 2023 2023 2023 
2023 2023 2023 2023 2023 2023 2023 2023 2023 
2023 2023 2023 2023 2023 2023 2023 2023 2023 
2023 2023 2023 2023 2023 2023 2023 2023 2023 
2023 2023 2023 2023 2023 2023 2023 2023 2023 
2023 2023 2023 2023 2023 2023 2023 2023 2023 
2023 2023 2023 2023 2023 2023 2023 2023 2023 
2023 2023 2023 2023 2023 2023 2023 2023 2023 
2023 2023 2023 2023 2023 2023 2023 2023 2023 
2023 2023 2023 2023 2023 2023 2023 2023 2023 
2023 2023 2023 2023 2023 2023 2023 2023 2023 
2023 2023 2023 2023 2023 2023 2023 2023 2023 
2023 2023 2023 2023 2023 2023 2023 2023 2023 
2023 2023 2023 2023 2023 2023 2023 2023 2023 
2023 2023 2023 2023 2023 2023 2023 2023 2023 
2023 2023 2023 2023 2023 2023 2023 2023 2023 
2023 2023 2023 2023 2023 2023 2023 2023 2023 
2023 2023 2023 2023 2023 2023 2023 2023 2023 
2023 2023 2023 2023 2023 2023 2023 2023 2023 
2023 2023 2023 2023 2023 2023 2023 2023 2023 
2023 2023 2023 2023 2023 2023 2023 2023 2023 
2023 2023 2023 2023 2023 2023 2023 2023 2023 
2023 2023 2023 2023 2023 2023 2023 2023 2023 
2023 2023 2023 2023 2023 2023 2023 2023 2023 
2023 2023 2023 2023 2023 2023 2023 2023 2023 
2023 2023 2023 2023 2023 2023 2023 2023 2023 
2023 2023 2023 2023 2023 2023 2023 2023 2023 
2023 2023 2023 2023 2023 2023 2023 2023 2023 
2023 2023 2023 2023 2023 2023 2023 2023 2023 
2023 2023 2023 2023 2023 2023 2023 2023 2023 
2023 2023 2023 2023 2023 2023 2023 2023 2023 
2023 2023 2023 2023 2023 2023 2023 2023 2023 
2023 2023 2023 2023 2023 2023 2023 2023 2023 
2023 2023 2023 2023 2023 2023 2023 2023 2023 
2023 2023 2023 2023 2023 2023 2023 2023 2023 
2023 2023 2023 2023 2023 2023 2023 2023 2023 
2023 2023 2023 2023 2023 2023 2023 2023 2023 
2023 2023 2023 2023 2023 2023 2023 2023 2023 
2023 2023 2023 2023 2023 2023 2023 2023 2023 
2023 2023 2023 2023 2023 2023 2023 2023 2023 
2023 2023 2023 2023 2023 2023 2023 2023 2023 
2023 2023 2023 2023 2023 2023 2023 2023 2023 
2023 2023 2023 2023 2023 2023 2023 2023 2023 
2023 2023 2023 2023 2023 2023 2023 2023 2023 
2023 2023 2023 2023 2023 2023 2023 2023 2023 
2023 2023 2023 2023 2023 2023 2023 2023 2023 
2023 2023 2023 2023 2023 2023 2023 2023 2023 
2023 2023 2023 2023 2023 2023 2023 2023 2023 
2023 2023 2023 2023 2023 2023 2023 2023 2023 
2023 2023 2023 2023 2023 2023 2023 2023 2023 
2023 2023 2023 2023 2023 2023 2023 2023 2023 
2023 2023 2023 2023 2023 2023 2023 2023 2023 
2023 2023 2023 2023 2023 2023 2023 2023 2023 
2023 2023 2023 2023 2023 2023 2023 2023 2023 
2023 2023 2023 2023 2023 2023 2023 2023 2023 
2023 2023 2023 2023 2023 2023 2023 2023 2023 
2023 2023 2023 2023 2023 2023 2023 2023 2023 
2023 2023 2023 2023 2023 2023 2023 2023 2023 
2023 2023 2023 2023 2023 2023 2023 2023 2023 
2023 2023 2023 2023 2023 2023 2023 2023 2023 
2023 2023 2023 2023 2023 2023 2023 2023 2023 
2023 2023 2023 2023 2023 2023 2023 2023 2023 
2023 2023 2023 2023 2023 2023 2023 2023 2023 
2023 2023 2023 2023 2023 2023 2023 2023 2023 
2023 2023 2023 2023 2023 2023 2023 2023 2023 
2023 2023 2023 2023 2023 2023 2023 2023 2023 
2023 2023 2023 2023 2023 2023 2023 2023 2023 
2023 2023 2023 2023 2023 2023 2023 2023 2023 
2023 2023 2023 2023 2023 2023 2023 2023 2023 
2023 2023 2023 2023 2023 2023 2023 2023 2023 
2023 2023 2023 2023 2023 2023 2023 2023 2023 
2023 2023 2023 2023 2023 2023 2023 2023 2023 
2023 2023 2023 2023 2023 2023 2023 2023 2023 
2023 2023 2023 2023 2023 2023 2023 2023 2023 
2023 2023 2023 2023 2023 2023 2023 2023 2023 
2023 2023 2023 2023 2023 2023 2023 2023 2023 
2023 2023 2023 2023 2023 2023 2023 2023 2023 
2023 2023 2023 2023 2023 2023 2023 2023 2023 
2023 2023 2023 2023 2023 2023 2023 2023 2023 
2023 2023 2023 2023 2023 2023 2023 2023 2023 
2023 2023 2023 2023 2023 2023 2023 2023 2023 
2023 2023 2023 2023 2023 2023 2023 2023 2023 
2023 2023 2023 2023 2023 2023 2023 2023 2023 
2023 2023 2023 2023 2023 2023 2023 2023 2023 
2023 2023 2023 2023 2023 2023 2023 2023 2023 
2023 2023 2023 2023 2023 2023 2023 2023 2023 
2023 2023 2023 2023 2023 2023 2023 2023 2023 
2023 2023 2023 2023 2023 2023 2023 2023 2023 
2023 2023 2023 2023 2023 2023 2023 2023 2023 
2023 2023 2023 2023 2023 2023 2023 2023 2023 
2023 2023 2023 2023 2023 2023 2023 2023 2023 
2023 2023 2023 2023 2023 2023 2023 2023 2023 
2023 2023 2023 2023 2023 2023 2023 2023 2023 