# vtk DataFile Version 4.0
vtk output
ASCII
DATASET POLYDATA
POINTS 14978 float
40.7767 26.8746 -36.9926 41.0453 26.2826 -36.6252 41.4816 26.5903 -37.3094 
40.2603 26.8378 -37.2405 40.2174 26.5937 -36.7064 39.7168 26.2554 -37.0317 
40.9543 26.8314 -37.6671 41.417 26.4897 -38.088 40.4366 26.6504 -37.8701 
39.9154 26.4199 -37.6105 40.8742 26.4886 -38.2937 38.9339 26.6949 -40.0705 
39.0999 26.5215 -39.7966 39.2171 26.6217 -40.0699 38.683 26.2349 -39.9163 
39.1148 26.3224 -40.4342 42.7443 25.7567 -37.0332 42.9797 25.4249 -36.6921 
43.4216 25.3047 -36.904 41.9913 26.136 -36.9907 41.9947 25.4529 -36.634 
40.9313 25.6569 -36.3361 39.9567 25.5677 -36.3824 39.3335 25.4591 -36.9665 
42.9371 25.5963 -37.5561 42.6093 25.5314 -38.3666 42.1174 26.0507 -37.8853 
39.9877 26.0948 -38.3874 39.3745 25.6859 -37.6793 41.8862 25.8028 -38.9994 
42.3146 25.4463 -39.1838 40.9922 26.1226 -38.8897 40.0106 26.056 -39.0835 
38.9025 25.3572 -38.3885 39.2113 26.0275 -39.1848 38.4507 25.5286 -39.1674 
41.841 25.5716 -39.672 41.5844 25.3446 -40.1553 41.1957 25.8008 -39.7803 
39.9341 26.1187 -39.8684 38.2625 25.5778 -39.9046 40.8941 25.3966 -40.37 
39.9337 25.625 -40.6955 39.1427 25.8467 -41.0129 39.5887 25.3851 -41.1667 
38.5188 25.7523 -40.7196 38.8839 25.2307 -41.3638 43.8961 24.8143 -36.2419 
44.0332 24.2419 -35.5589 44.5201 24.5496 -36.3189 43.4973 24.3338 -35.9028 
40.8308 24.9637 -36.1138 41.163 24.1658 -35.689 41.4816 24.3786 -36.2513 
39.9724 24.9391 -35.9308 40.248 24.4031 -35.7023 39.6687 24.5122 -36.0459 
44.0147 24.9562 -36.9923 44.5816 24.5508 -37.2976 43.0297 24.8283 -36.5447 
42.2143 24.7335 -37.0127 42.45 24.369 -36.9446 41.6966 24.6658 -36.807 
38.9176 24.9204 -37.3045 39.1726 24.5568 -36.5993 38.6458 24.2191 -37.0162 
43.9017 24.9038 -38.0284 44.5363 24.5442 -38.3236 43.326 25.2313 -37.7793 
42.0409 24.4257 -37.1945 38.9139 25.0865 -37.8622 38.422 24.4195 -37.7586 
43.8673 24.8255 -39.0103 44.4377 24.5562 -38.9962 43.0148 25.1366 -38.9243 
37.9547 24.9668 -39.3749 38.1329 24.7732 -38.5752 37.6814 24.2484 -38.8147 
44.1534 24.4315 -39.5904 43.6007 24.3611 -40.1671 43.2144 24.8115 -39.8116 
42.3141 25.0802 -39.9092 37.951 25.0712 -40.342 37.475 24.3465 -39.7471 
42.9137 24.4009 -40.3784 41.8582 24.5692 -40.5792 40.8225 24.8015 -40.7687 
40.1807 24.9764 -41.0099 40.637 24.3841 -41.123 38.155 25.0892 -41.1019 
37.5313 24.4002 -41.0006 39.8114 24.4501 -41.4188 38.8349 24.3843 -41.6017 
38.2383 24.6271 -41.4652 44.8231 23.8377 -34.9797 44.9196 23.2097 -34.6553 
45.3134 23.559 -35.2079 44.2924 23.9854 -35.0845 44.1013 23.4339 -34.6549 
43.5272 23.5321 -34.9423 44.917 24.0794 -35.68 45.4445 23.4279 -35.9764 
42.703 24.032 -36.1706 43.0203 23.582 -35.4234 41.9215 23.9972 -36.0212 
42.0073 23.5883 -35.5875 40.9281 23.5613 -35.6002 40.0776 23.8905 -35.8516 
40.4224 23.4309 -35.9119 45.0864 24.0634 -36.7142 45.4417 23.3731 -37.0164 
42.0572 24.2088 -36.7412 39.8493 23.478 -36.3846 38.9349 23.7129 -36.7373 
38.5489 23.5388 -37.1945 45.0802 24.048 -37.7533 45.4138 23.3715 -38.0136 
38.1275 23.4308 -37.6559 37.8868 24.0882 -38.1605 37.712 23.4031 -38.1593 
44.9366 24.0513 -38.812 45.3179 23.1885 -38.8988 37.3302 23.4264 -38.8635 
44.7935 23.6615 -39.5601 44.1875 23.9441 -40.0258 44.4808 23.1941 -40.0608 
36.964 23.7263 -39.4697 36.8464 24.0545 -40.1636 36.2196 23.7904 -40.2966 
36.3093 23.5599 -39.5634 35.6527 23.2178 -39.9017 43.7355 23.7098 -40.379 
42.9629 23.6467 -40.7308 42.1526 23.85 -40.9961 42.654 23.3633 -41.1248 
41.373 24.0849 -41.053 36.7777 23.9533 -41.0841 36.3789 23.5079 -41.0682 
35.9365 23.5589 -40.5126 41.9059 23.2949 -41.367 40.7709 23.558 -41.4369 
39.8608 23.3463 -41.5681 39.0375 23.4991 -41.592 37.9217 23.6571 -41.6726 
37.1831 23.7918 -41.8493 37.2328 23.3518 -42.097 36.8309 23.463 -41.8516 
37.0269 23.4747 -42.2574 45.026 22.435 -34.3244 45.4754 22.6398 -34.9851 
44.0976 22.5311 -34.3064 42.8069 22.9072 -34.9964 43.2247 22.7156 -34.629 
42.5076 22.1565 -35.161 45.6746 22.4827 -36.1087 41.9808 22.7976 -35.4976 
40.9439 22.9593 -35.9692 41.4543 22.421 -36.1651 45.6321 22.4414 -37.3322 
40.76 22.6516 -36.6067 40.0616 22.7921 -36.9729 40.5976 22.3214 -37.1703 
39.2501 23.0454 -37.0193 45.5135 22.6101 -38.2255 39.813 22.2305 -37.407 
38.7738 22.6727 -37.3916 38.17 22.4475 -37.5278 37.4956 22.3167 -38.0198 
45.3955 22.1856 -39.112 36.897 22.3867 -38.5474 36.6531 23.1116 -38.9908 
35.9968 23.0348 -39.1225 36.2228 22.4948 -38.7239 35.6572 22.3973 -39.081 
45.0444 22.7888 -39.6198 44.7316 22.3858 -40.1176 35.1902 22.3178 -39.6897 
43.9943 22.6237 -40.5379 43.2318 22.9341 -40.96 43.4649 22.162 -41.0142 
35.8209 23.1314 -40.9966 35.0774 22.7416 -40.4778 35.2036 22.7433 -41.3542 
34.6492 22.2123 -40.8248 42.7193 22.5508 -41.3413 41.9074 22.3732 -41.5243 
41.0497 22.5026 -41.5578 40.0313 22.4859 -41.57 39.2319 22.6133 -41.5608 
38.2991 22.44 -41.4459 36.8974 22.6566 -41.6086 36.9976 23.2019 -42.1644 
36.2514 22.3366 -42.0681 35.9817 22.7403 -41.8654 35.5654 22.5673 -41.9964 
35.097 22.1191 -41.5799 35.9933 22.4996 -42.2397 44.6761 21.886 -33.8989 
45.0113 21.2074 -33.6561 45.3532 21.681 -34.1613 43.8744 21.8442 -33.9825 
44.2873 21.355 -33.6771 43.6537 21.4725 -33.9222 45.73 21.6198 -35.0117 
43.2381 21.6346 -34.4332 42.6767 21.5033 -35.204 45.947 21.8088 -35.8986 
46.0254 21.4652 -35.4984 46.3693 21.4153 -36.1665 41.9706 22.1071 -36.078 
42.4976 21.4661 -36.1827 45.9805 21.8807 -36.704 46.3172 21.3901 -37.0958 
42.0315 21.7764 -36.8221 42.2952 21.2572 -37.1044 41.3716 22.0598 -36.8999 
37.6735 21.9145 -37.1181 38.2 21.2545 -36.7052 38.4224 21.6787 -37.0946 
36.8415 21.8424 -36.8954 37.1222 21.331 -36.4573 36.2252 21.7378 -37.0516 
36.0375 21.4608 -36.6552 35.4033 21.1918 -37.1001 45.904 21.6168 -37.4588 
45.664 21.6897 -38.2417 41.7064 21.3729 -37.407 40.7438 21.5411 -37.511 
39.9956 21.445 -37.5874 39.18 21.5405 -37.3841 36.9318 21.6529 -37.5481 
37.2763 21.5606 -38.0201 36.0141 21.3491 -37.4883 45.6365 21.4208 -39.1978 
37.0609 21.6488 -38.2667 36.0691 21.4579 -38.4678 35.3471 21.2459 -39.2723 
45.1146 22.0421 -39.8682 45.4162 21.5659 -39.7747 34.9543 21.6261 -39.738 
34.7818 22.0972 -40.1351 34.6577 21.5376 -40.3425 44.9227 21.474 -40.429 
44.0153 21.7255 -40.7796 43.5376 21.4908 -41.2017 37.7017 21.8949 -41.0333 
38.3267 21.5475 -41.1079 37.9969 21.2387 -40.7768 37.3854 21.2885 -40.5714 
37.1552 21.8868 -41.0229 36.6822 21.5538 -41.002 34.6341 21.6213 -41.0448 
42.8558 21.4491 -41.517 42.012 21.524 -41.5336 41.0416 21.4977 -41.5544 
40.024 21.4692 -41.556 39.031 21.5818 -41.4292 35.9724 21.7931 -41.6342 
35.813 22.2334 -42.0868 35.1614 21.4193 -41.3341 44.7499 20.6773 -33.6635 
45.487 20.7787 -34.0893 43.9577 20.9432 -33.9012 44.4337 20.4169 -33.8883 
46.1497 20.9801 -35.0793 46.0265 20.1075 -34.5006 46.6397 20.5658 -35.0917 
43.9382 20.4609 -34.4342 43.0817 21.019 -34.9596 43.4971 20.2964 -35.332 
47.7155 20.8202 -36.1007 48.0382 20.2703 -35.734 48.3027 20.5538 -36.2291 
46.9047 20.9601 -35.7874 47.3807 20.3326 -35.4063 42.9387 20.9657 -35.691 
43.2891 20.2502 -36.2456 36.8257 20.8209 -36.0203 37.2475 20.2991 -35.723 
37.4153 20.7488 -36.0333 36.5183 20.1804 -35.9447 48.0185 20.9252 -37.1154 
48.7087 20.4921 -36.9148 46.9971 21.1116 -36.9143 42.9598 20.7162 -36.4512 
42.6907 20.6101 -37.0362 38.8397 21.0828 -36.9617 39.0619 20.3489 -36.6894 
39.4027 20.6308 -37.1034 38.1409 20.494 -36.3102 35.97 20.6268 -36.3423 
34.8438 20.7874 -36.9477 35.1331 20.7568 -36.6703 34.6627 20.2612 -36.8965 
49.2107 20.4539 -37.5778 49.2992 20.4977 -38.1924 48.7381 20.8067 -37.8829 
47.8977 20.9945 -38.1869 47.0349 21.0037 -38.0407 46.2451 21.1776 -37.8355 
42.0488 20.3721 -37.528 41.2008 20.6432 -37.6176 40.221 20.5282 -37.4385 
36.8391 21.2799 -38.0684 36.2591 21.1425 -37.9173 35.4092 20.5521 -38.112 
34.9134 20.2571 -37.3949 48.9079 20.6193 -38.6087 48.4839 20.4636 -39.1962 
48.2278 20.8084 -38.7658 47.1303 20.8537 -39.028 46.1491 21.0764 -38.7795 
34.903 20.7116 -39.0444 35.0851 20.7107 -38.7455 34.7843 20.4441 -39.0154 
47.7002 20.4897 -39.4887 46.9155 20.5238 -39.7151 46.4183 20.3909 -40.2089 
46.0399 20.9256 -39.781 36.6908 20.9067 -40.1911 37.4099 20.4303 -39.8968 
36.8609 20.2383 -39.4771 36.044 20.57 -39.5902 35.743 20.941 -40.0874 
35.199 20.3205 -39.2287 35.0869 21.1659 -39.9449 45.71 20.6248 -40.5979 
44.8971 20.8429 -41.1113 45.3949 20.4276 -41.2165 44.1062 21.1936 -41.1618 
38.4716 20.7338 -41.0443 37.9394 20.3487 -40.4843 35.8951 21.1293 -40.9142 
35.058 21.1217 -40.6928 44.8442 20.5695 -41.6412 44.556 20.3851 -42.1267 
44.2066 20.8075 -41.7728 43.3596 20.9455 -41.8363 42.5864 20.68 -41.9622 
41.9523 20.6512 -41.7561 40.936 20.4319 -41.663 39.9588 20.4525 -41.5564 
39.0998 20.4648 -41.4073 43.7945 20.2918 -42.3816 42.7772 20.2547 -42.3404 
44.9752 20.1985 -34.0373 46.8939 20.055 -34.8859 46.884 19.4159 -34.6462 
47.3926 19.5735 -35.0281 46.0483 19.3243 -34.5929 44.9319 19.7235 -34.5604 
44.0891 19.8807 -34.8941 44.4838 19.4862 -34.9481 47.9441 19.3876 -35.4819 
48.5135 19.8076 -36.1865 44.1511 19.4088 -35.3818 43.6448 19.4204 -36.1688 
37.8455 20.1567 -35.8972 37.9493 19.3355 -35.6161 38.4246 19.6955 -36.0312 
37.0246 19.6756 -35.6222 36.4576 19.2189 -36.1191 49.2103 19.9285 -37.0723 
48.9086 19.2602 -36.5277 49.5113 19.2982 -36.8328 43.1095 20.1189 -36.9197 
43.3112 19.4166 -36.9659 39.8263 20.0268 -36.9864 40.0733 19.298 -36.6996 
40.4345 19.5933 -37.1119 39.1691 19.4336 -36.3286 35.7916 19.6178 -36.4842 
35.0252 19.8579 -36.6934 34.716 19.6793 -37.0926 50.7491 19.8093 -38.1227 
51.2288 19.3355 -37.5991 51.2951 19.333 -38.1288 50.2196 19.6381 -37.4024 
49.7864 20.1311 -38.045 42.705 19.5386 -37.4464 42.0404 19.449 -37.6259 
41.255 19.4974 -37.4547 35.3991 19.3776 -38.242 35.0745 19.4199 -37.5395 
50.9094 19.561 -38.5474 50.5029 19.2353 -39.0579 50.1164 19.8895 -38.9189 
49.1849 20.2356 -38.9997 36.8518 19.7412 -39.0261 37.2709 19.7848 -39.192 
37.032 19.519 -38.8442 36.7518 19.3022 -39.0329 34.9706 20.2116 -38.8759 
35.3486 19.6522 -38.9197 49.892 19.5088 -39.5466 49.4483 19.1859 -40.0486 
[...]
CELL_DATA 30036
SCALARS scalars float
LOOKUP_TABLE default
2015 2015 2015 2015 2015 2015 2015 2015 2015 
2015 2015 2015 2015 2015 2015 2015 2015 2015 
2015 2015 2015 2015 2015 2015 2015 2015 2015 
2015 2015 2015 2015 2015 2015 2015 2015 2015 
2015 2015 2015 2015 2015 2015 2015 2015 2015 
2015 2015 2015 2015 2015 2015 2015 2015 2015 
2015 2015 2015 2015 2015 2015 2015 2015 2015 
2015 2015 2015 2015 2015 2015 2015 2015 2015 
2015 2015 2015 2015 2015 2015 2015 2015 2015 
2015 2015 2015 2015 2015 2015 2015 2015 2015 
2015 2015 2015 2015 2015 2015 2015 2015 2015 
2015 2015 2015 2015 2015 2015 2015 2015 2015 
2015 2015 2015 2015 2015 2015 2015 2015 2015 
2015 2015 2015 2015 2015 2015 2015 2015 2015 
2015 2015 2015 2015 2015 2015 2015 2015 2015 
2015 2015 2015 2015 2015 2015 2015 2015 2015 
2015 2015 2015 2015 2015 2015 2015 2015 2015 
2015 2015 2015 2015 2015 2015 2015 2015 2015 
2015 2015 2015 2015 2015 2015 2015 2015 2015 
2015 2015 2015 2015 2015 2015 2015 2015 2015 
2015 2015 2015 2015 2015 2015 2015 2015 2015 
2015 2015 2015 2015 2015 2015 2015 2015 2015 
2015 2015 2015 2015 2015 2015 2015 2015 2015 
2015 2015 2015 2015 2015 2015 2015 2015 2015 
2015 2015 2015 2015 2015 2015 2015 2015 2015 
2015 2015 2015 2015 2015 2015 2015 2015 2015 
2015 2015 2015 2015 2015 2015 2015 2015 2015 
2015 2015 2015 2015 2015 2015 2015 2015 2015 
2015 2015 2015 2015 2015 2015 2015 2015 2015 
2015 2015 2015 2015 2015 2015 2015 2015 2015 
2015 2015 2015 2015 2015 2015 2015 2015 2015 
2015 2015 2015 2015 2015 2015 2015 2015 2015 
2015 2015 2015 2015 2015 2015 2015 2015 2015 
2015 2015 2015 2015 2015 2015 2015 2015 2015 
2015 2015 2015 2015 2015 2015 2015 2015 2015 
2015 2015 2015 2015 2015 2015 2015 2015 2015 
2015 2015 2015 2015 2015 2015 2015 2015 2015 
2015 2015 2015 2015 2015 2015 2015 2015 2015 
2015 2015 2015 2015 2015 2015 2015 2015 2015 
2015 2015 2015 2015 2015 2015 2015 2015 2015 
2015 2015 2015 2015 2015 2015 2015 2015 2015 
2015 2015 2015 2015 2015 2015 2015 2015 2015 
2015 2015 2015 2015 2015 2015 2015 2015 2015 
2015 2015 2015 2015 2015 2015 2015 2015 2015 
2015 2015 2015 2015 2015 2015 2015 2015 2015 
2015 2015 2015 2015 2015 2015 2015 2015 2015 
2015 2015 2015 2015 2015 2015 2015 2015 2015 
2015 2015 2015 2015 2015 2015 2015 2015 2015 
2015 2015 2015 2015 2015 2015 2015 2015 2015 
2015 2015 2015 2015 2015 2015 2015 2015 2015 
2015 2015 2015 2015 2015 2015 2015 2015 2015 
2015 2015 2015 2015 2015 2015 2015 2015 2015 
2015 2015 2015 2015 2015 2015 2015 2015 2015 
2015 2015 2015 2015 2015 2015 2015 2015 2015 
2015 2015 2015 2015 2015 2015 2015 2015 2015 
2015 2015 2015 2015 2015 2015 2015 2015 2015 
2015 2015 2015 2015 2015 2015 2015 2015 2015 
2015 2015 2015 2015 2015 2015 2015 2015 2015 
2015 2015 2015 2015 2015 2015 2015 2015 2015 
2015 2015 2015 2015 2015 2015 2015 2015 2015 
2015 2015 2015 2015 2015 2015 2015 2015 2015 
2015 2015 2015 2015 2015 2015 2015 2015 2015 
2015 2015 2015 2015 2015 2015 2015 2015 2015 
2015 2015 2015 2015 2015 2015 2015 2015 2015 
2015 2015 2015 2015 2015 2015 2015 2015 2015 
2015 2015 2015 2015 2015 2015 2015 2015 2015 
2015 2015 2015 2015 2015 2015 2015 2015 2015 
2015 2015 2015 2015 2015 2015 2015 2015 2015 
2015 2015 2015 2015 2015 2015 2015 2015 2015 
2015 2015 2015 2015 2015 2015 2015 2015 2015 
2015 2015 2015 2015 2015 2015 2015 2015 2015 
2015 2015 2015 2015 2015 2015 2015 2015 2015 
2015 2015 2015 2015 2015 2015 2015 2015 2015 
2015 2015 2015 2015 2015 2015 2015 2015 2015 
2015 2015 2015 2015 2015 2015 2015 2015 2015 
2015 2015 2015 2015 2015 2015 2015 2015 2015 
2015 2015 2015 2015 2015 2015 2015 2015 2015 
2015 2015 2015 2015 2015 2015 2015 2015 2015 
2015 2015 2015 2015 2015 2015 2015 2015 2015 
2015 2015 2015 2015 2015 2015 2015 2015 2015 
2015 2015 2015 2015 2015 2015 2015 2015 2015 
2015 2015 2015 2015 2015 2015 2015 2015 2015 
2015 2015 2015 2015 2015 2015 2015 2015 2015 
2015 2015 2015 2015 2015 2015 2015 2015 2015 
2015 2015 2015 2015 2015 2015 2015 2015 2015 
2015 2015 2015 2015 2015 2015 2015 2015 2015 
2015 2015 2015 2015 2015 2015 2015 2015 2015 
2015 2015 2015 2015 2015 2015 2015 2015 2015 
2015 2015 2015 2015 2015 2015 2015 2015 2015 
2015 2015 2015 2015 2015 2015 2015 2015 2015 
2015 2015 2015 2015 2015 2015 2015 2015 2015 
2015 2015 2015 2015 2015 2015 2015 2015 2015 
2015 2015 2015 2015 2015 2015 2015 2015 2015 
2015 2015 2015 2015 2015 2015 2015 2015 2015 
2015 2015 2015 2015 2015 2015 2015 2015 2015 
2015 2015 2015 2015 2015 2015 2015 2015 2015 
2015 2015 2015 2015 2015 2015 2015 2015 2015 
2015 2015 2015 2015 2015 2015 2015 2015 2015 
2015 2015 2015 2015 2015 2015 2015 2015 2015 
2015 2015 2015 2015 2015 2015 2015 2015 2015 
2015 2015 2015 2015 2015 2015 2015 2015 2015 
2015 2015 2015 2015 2015 2015 2015 2015 2015 
2015 2015 2015 2015 2015 2015 2015 2015 2015 
2015 2015 2015 2015 2015 2015 2015 2015 2015 
2015 2015 2015 2015 2015 2015 2015 2015 2015 
2015 2015 2015 2015 2015 2015 2015 2015 2015 
2015 2015 2015 2015 2015 2015 2015 2015 2015 
2015 2015 2015 2015 2015 2015 2015 2015 2015 
2015 2015 2015 2015 2015 2015 2015 2015 2015 
2015 2015 2015 2015 2015 2015 2015 2015 2015 
2015 2015 2015 2015 2015 2015 2015 2015 2015 
2015 2015 2015 2015 2015 2015 2015 2015 2015 
2015 2015 2015 2015 2015 2015 2015 2015 2015 
2015 2015 2015 2015 2015 2015 2015 2015 2015 
2015 2015 2015 2015 2015 2015 2015 2015 2015 
2015 2015 2015 2015 2015 2015 2015 2015 2015 
2015 2015 2015 2015 2015 2015 2015 2015 2015 
2015 2015 2015 2015 2015 2015 2015 2015 2015 
2015 2015 2015 2015 2015 2015 2015 2015 2015 
2015 2015 2015 2015 2015 2015 2015 2015 2015 
2015 2015 2015 2015 2015 2015 2015 2015 2015 
2015 2015 2015 2015 2015 2015 2015 2015 2015 
2015 2015 2015 2015 2015 2015 2015 2015 2015 
2015 2015 2015 2015 2015 2015 2015 2015 2015 
2015 2015 2015 2015 2015 2015 2015 2015 2015 
2015 2015 2015 2015 2015 2015 2015 2015 2015 
2015 2015 2015 2015 2015 2015 2015 2015 2015 
2015 2015 2015 2015 2015 2015 2015 2015 2015 
2015 2015 2015 2015 2015 2015 2015 2015 2015 
2015 2015 2015 2015 2015 2015 2015 2015 2015 
2015 2015 2015 2015 2015 2015 2015 2015 2015 
2015 2015 2015 2015 2015 2015 2015 2015 2015 
2015 2015 2015 2015 2015 2015 2015 2015 2015 
2015 2015 2015 2015 2015 2015 2015 2015 2015 
2015 2015 2015 2015 2015 2015 2015 2015 2015 
2015 2015 2015 2015 2015 2015 2015 2015 2015 
2015 2015 2015 2015 2015 2015 2015 2015 2015 
2015 2015 2015 2015 2015 2015 2015 2015 2015 
2015 2015 2015 2015 2015 2015 2015 2015 2015 
2015 2015 2015 2015 2015 2015 2015 2015 2015 
2015 2015 2015 2015 2015 2015 2015 2015 2015 
2015 2015 2015 2015 2015 2015 2015 2015 2015 
2015 2015 2015 2015 2015 2015 2015 2015 2015 
2015 2015 2015 2015 2015 2015 2015 2015 2015 
2015 2015 2015 2015 2015 2015 2015 2015 2015 
2015 2015 2015 2015 2015 2015 2015 2015 2015 
2015 2015 2015 2015 2015 2015 2015 2015 2015 
2015 2015 2015 2015 2015 2015 2015 2015 2015 
2015 2015 2015 2015 2015 2015 2015 2015 2015 
2015 2015 2015 2015 2015 2015 2015 2015 2015 
2015 2015 2015 2015 2015 2015 2015 2015 2015 
2015 2015 2015 2015 2015 2015 2015 2015 2015 
2015 2015 2015 2015 2015 2015 2015 2015 2015 
2015 2015 2015 2015 2015 2015 2015 2015 2015 
2015 2015 2015 2015 2015 2015 2015 2015 2015 
2015 2015 2015 2015 2015 2015 2015 2015 2015 
2015 2015 2015 2015 2015 2015 2015 2015 2015 
2015 2015 2015 2015 2015 2015 2015 2015 2015 
2015 2015 2015 2015 2015 2015 2015 2015 2015 
2015 2015 2015 2015 2015 2015 2015 2015 2015 
2015 2015 2015 2015 2015 2015 2015 2015 2015 
2015 2015 2015 2015 2015 2015 2015 2015 2015 
2015 2015 2015 2015 2015 2015 2015 2015 2015 
2015 2015 2015 2015 2015 2015 2015 2015 2015 
2015 2015 2015 2015 2015 2015 2015 2015 2015 
2015 2015 2015 2015 2015 2015 2015 2015 2015 
2015 2015 2015 2015 2015 2015 2015 2015 2015 
2015 2015 2015 2015 2015 2015 2015 2015 2015 
2015 2015 2015 2015 2015 2015 2015 2015 2015 
2015 2015 2015 2015 2015 2015 2015 2015 2015 
2015 2015 2015 2015 2015 2015 2015 2015 2015 
2015 2015 2015 2015 2015 2015 2015 2015 2015 
2015 2015 2015 2015 2015 2015 2015 2015 2015 
2015 2015 2015 2015 2015 2015 2015 2015 2015 
2015 2015 2015 2015 2015 2015 2015 2015 2015 
2015 2015 2015 2015 2015 2015 2015 2015 2015 
2015 2015 2015 2015 2015 2015 2015 2015 2015 
2015 2015 2015 2015 2015 2015 2015 2015 2015 
2015 2015 2015 2015 2015 2015 2015 2015 2015 
2015 2015 2015 2015 2015 2015 2015 2015 2015 
2015 2015 2015 2015 2015 2015 2015 2015 2015 
2015 2015 2015 2015 2015 2015 2015 2015 2015 
2015 2015 2015 2015 2015 2015 2015 2015 2015 
2015 2015 2015 2015 2015 2015 2015 2015 2015 
2015 2015 2015 2015 2015 2015 2015 2015 2015 
2015 2015 2015 2015 2015 2015 2015 2015 2015 
2015 2015 2015 2015 2015 2015 2015 2015 2015 
2015 2015 2015 2015 2015 2015 2015 2015 2015 
2015 2015 2015 2015 2015 2015 2015 2015 2015 
2015 2015 2015 2015 2015 2015 2015 2015 2015 
2015 2015 2015 2015 2015 2015 2015 2015 2015 
2015 2015 2015 2015 2015 2015 2015 2015 2015 
2015 2015 2015 2015 2015 2015 2015 2015 2015 
2015 2015 2015 2015 2015 2015 2015 2015 2015 
2015 2015 2015 2015 2015 2015 2015 2015 2015 
2015 2015 2015 2015 2015 2015 2015 2015 2015 
2015 2015 2015 2015 2015 2015 2015 2015 2015 
2015 2015 2015 2015 2015 2015 2015 2015 2015 
2015 2015 2015 2015 2015 2015 2015 2015 2015 
2015 2015 2015 2015 2015 2015 2015 2015 2015 
2015 2015 2015 2015 2015 2015 2015 2015 2015 
2015 2015 2015 2015 2015 2015 2015 2015 2015 
2015 2015 2015 2015 2015 2015 2015 2015 2015 
2015 2015 2015 2015 2015 2015 2015 2015 2015 
2015 2015 2015 2015 2015 2015 2015 2015 2015 
2015 2015 2015 2015 2015 2015 2015 2015 2015 
2015 2015 2015 2015 2015 2015 2015 2015 2015 
2015 2015 2015 2015 2015 2015 2015 2015 2015 
2015 2015 2015 2015 2015 2015 2015 2015 2015 
2015 2015 2015 2015 2015 2015 2015 2015 2015 
2015 2015 2015 2015 2015 2015 2015 2015 2015 
2015 2015 2015 2015 2015 2015 2015 2015 2015 
2015 2015 2015 2015 2015 2015 2015 2015 2015 
2015 2015 2015 2015 2015 2015 2015 2015 2015 
2015 2015 2015 2015 2015 2015 2015 2015 2015 
2015 2015 2015 2015 2015 2015 2015 2015 2015 
2015 2015 2015 2015 2015 2015 2015 2015 2015 
2015 2015 2015 2015 2015 2015 2015 2015 2015 
2015 2015 2015 2015 2015 2015 2015 2015 2015 
2015 2015 2015 2015 2015 2015 2015 2015 2015 
2015 2015 2015 2015 2015 2015 2015 2015 2015 
2015 2015 2015 2015 2015 2015 2015 2015 2015 
2015 2015 2015 2015 2015 2015 2015 2015 2015 
2015 2015 2015 2015 2015 2015 2015 2015 2015 
2015 2015 2015 2015 2015 2015 2015 2015 2015 
2015 2015 2015 2015 2015 2015 2015 2015 2015 
2015 2015 2015 2015 2015 2015 2015 2015 2015 
2015 2015 2015 2015 2015 2015 2015 2015 2015 
2015 2015 2015 2015 2015 2015 2015 2015 2015 
2015 2015 2015 2015 2015 2015 2015 2015 2015 
2015 2015 2015 2015 2015 2015 2015 2015 2015 
2015 2015 2015 2015 2015 2015 2015 2015 2015 
2015 2015 2015 2015 2015 2015 2015 2015 2015 
2015 2015 2015 2015 2015 2015 2015 2015 2015 
2015 2015 2015 2015 2015 2015 2015 2015 2015 
2015 2015 2015 2015 2015 2015 2015 2015 2015 
2015 2015 2015 2015 2015 2015 2015 2015 2015 
2015 2015 2015 2015 2015 2015 2015 2015 2015 
2015 2015 2015 2015 2015 2015 2015 2015 2015 
2015 2015 2015 2015 2015 2015 2015 2015 2015 
2015 2015 2015 2015 2015 2015 2015 2015 2015 
2015 2015 2015 2015 2015 2015 2015 2015 2015 
2015 2015 2015 2015 2015 2015 2015 2015 2015 
2015 2015 2015 2015 2015 2015 2015 2015 2015 
2015 2015 2015 2015 2015 2015 2015 2015 2015 
2015 2015 2015 2015 2015 2015 2015 2015 2015 
2015 2015 2015 2015 2015 2015 2015 2015 2015 
2015 2015 2015 2015 2015 2015 2015 2015 2015 
2015 2015 2015 2015 2015 2015 2015 2015 2015 
2015 2015 2015 2015 2015 2015 2015 2015 2015 
2015 2015 2015 2015 2015 2015 2015 2015 2015 
2015 2015 2015 2015 2015 2015 2015 2015 2015 
2015 2015 2015 2015 2015 2015 2015 2015 2015 
2015 2015 2015 2015 2015 2015 2015 2015 2015 
2015 2015 2015 2015 2015 2015 2015 2015 2015 
2015 2015 2015 2015 2015 2015 2015 2015 2015 
2015 2015 2015 2015 2015 2015 2015 2015 2015 
2015 2015 2015 2015 2015 2015 2015 2015 2015 
2015 2015 2015 2015 2015 2015 2015 2015 2015 
2015 2015 2015 2015 2015 2015 2015 2015 2015 
2015 2015 2015 2015 2015 2015 2015 2015 2015 
2015 2015 2015 2015 2015 2015 2015 2015 2015 
2015 2015 2015 2015 2015 2015 2015 2015 2015 
2015 2015 2015 2015 2015 2015 2015 2015 2015 
2015 2015 2015 2015 2015 2015 2015 2015 2015 
2015 2015 2015 2015 2015 2015 2015 2015 2015 
2015 2015 2015 2015 2015 2015 2015 2015 2015 
2015 2015 2015 2015 2015 2015 2015 2015 2015 
2015 2015 2015 2015 2015 2015 2015 2015 2015 
2015 2015 2015 2015 2015 2015 2015 2015 2015 
2015 2015 2015 2015 2015 2015 2015 2015 2015 
2015 2015 2015 2015 2015 2015 2015 2015 2015 
2015 2015 2015 2015 2015 2015 2015 2015 2015 
2015 2015 2015 2015 2015 2015 2015 2015 2015 
2015 2015 2015 2015 2015 2015 2015 2015 2015 
2015 2015 2015 2015 2015 2015 2015 2015 2015 
2015 2015 2015 2015 2015 2015 2015 2015 2015 
2015 2015 2015 2015 2015 2015 2015 2015 2015 
2015 2015 2015 2015 2015 2015 2015 2015 2015 
2015 2015 2015 2015 2015 2015 2015 2015 2015 
2015 2015 2015 2015 2015 2015 2015 2015 2015 
2015 2015 2015 2015 2015 2015 2015 2015 2015 
2015 2015 2015 2015 2015 2015 2015 2015 2015 
2015 2015 2015 2015 2015 2015 2015 2015 2015 
2015 2015 2015 2015 2015 2015 2015 2015 2015 
2015 2015 2015 2015 2015 2015 2015 2015 2015 
2015 2015 2015 2015 2015 2015 2015 2015 2015 
2015 2015 2015 2015 2015 2015 2015 2015 2015 
2015 2015 2015 2015 2015 2015 2015 2015 2015 
2015 2015 2015 2015 2015 2015 2015 2015 2015 
2015 2015 2015 2015 2015 2015 2015 2015 2015 
2015 2015 2015 2015 2015 2015 2015 2015 2015 
2015 2015 2015 2015 2015 2015 2015 2015 2015 
2015 2015 2015 2015 2015 2015 2015 2015 2015 
2015 2015 2015 2015 2015 2015 2015 2015 2015 
2015 2015 2015 2015 2015 2015 2015 2015 2015 
2015 2015 2015 2015 2015 2015 2015 2015 2015 
2015 2015 2015 2015 2015 2015 2015 2015 2015 
2015 2015 2015 2015 2015 2015 2015 2015 2015 
2015 2015 2015 2015 2015 2015 2015 2015 2015 
2015 2015 2015 2015 2015 2015 2015 2015 2015 
2015 2015 2015 2015 2015 2015 2015 2015 2015 
2015 2015 2015 2015 2015 2015 2015 2015 2015 
2015 2015 2015 2015 2015 2015 2015 2015 2015 
2015 2015 2015 2015 2015 2015 2015 2015 2015 
2015 2015 2015 2015 2015 2015 2015 2015 2015 
2015 2015 2015 2015 2015 2015 2015 2015 2015 
2015 2015 2015 2015 2015 2015 2015 2015 2015 
2015 2015 2015 2015 2015 2015 2015 2015 2015 
2015 2015 2015 2015 2015 2015 2015 2015 2015 
2015 2015 2015 2015 2015 2015 2015 2015 2015 
2015 2015 2015 2015 2015 2015 2015 2015 2015 
2015 2015 2015 2015 2015 2015 2015 2015 2015 
2015 2015 2015 2015 2015 2015 2015 2015 2015 
2015 2015 2015 2015 2015 2015 2015 2015 2015 
2015 2015 2015 2015 2015 2015 2015 2015 2015 
2015 2015 2015 2015 2015 2015 2015 2015 2015 
2015 2015 2015 2015 2015 2015 2015 2015 2015 
2015 2015 2015 2015 2015 2015 2015 2015 2015 
2015 2015 2015 2015 2015 2015 2015 2015 2015 
2015 2015 2015 2015 2015 2015 2015 2015 2015 
2015 2015 2015 2015 2015 2015 2015 2015 2015 
2015 2015 2015 2015 2015 2015 2015 2015 2015 
2015 2015 2015 2015 2015 2015 2015 2015 2015 
2015 2015 2015 2015 2015 2015 2015 2015 2015 
2015 2015 2015 2015 2015 2015 2015 2015 2015 
2015 2015 2015 2015 2015 2015 2015 2015 2015 
2015 2015 2015 2015 2015 2015 2015 2015 2015 
2015 2015 2015 2015 2015 2015 2015 2015 2015 
2015 2015 2015 2015 2015 2015 2015 2015 2015 
2015 2015 2015 2015 2015 2015 2015 2015 2015 
2015 2015 2015 2015 2015 2015 2015 2015 2015 
2015 2015 2015 2015 2015 2015 2015 2015 2015 
2015 2015 2015 2015 2015 2015 2015 2015 2015 
2015 2015 2015 2015 2015 2015 2015 2015 2015 
2015 2015 2015 2015 2015 2015 2015 2015 2015 
2015 2015 2015 2015 2015 2015 2015 2015 2015 
2015 2015 2015 2015 2015 2015 2015 2015 2015 
2015 2015 2015 2015 2015 2015 2015 2015 2015 
2015 2015 2015 2015 2015 2015 2015 2015 2015 
2015 2015 2015 2015 2015 2015 2015 2015 2015 
2015 2015 2015 2015 2015 2015 2015 2015 2015 
2015 2015 2015 2015 2015 2015 2015 2015 2015 
2015 2015 2015 2015 2015 2015 2015 2015 2015 
2015 2015 2015 2015 2015 2015 2015 2015 2015 
2015 2015 2015 2015 2015 2015 2015 2015 2015 
2015 2015 2015 2015 2015 2015 2015 2015 2015 
2015 2015 2015 2015 2015 2015 2015 2015 2015 
2015 2015 2015 2015 2015 2015 2015 2015 2015 
2015 2015 2015 2015 2015 2015 2015 2015 2015 
2015 2015 2015 2015 2015 2015 2015 2015 2015 
2015 2015 2015 2015 2015 2015 2015 2015 2015 
2015 2015 2015 2015 2015 2015 2015 2015 2015 
2015 2015 2015 2015 2015 2015 2015 2015 2015 
2015 2015 2015 2015 2015 2015 2015 2015 2015 
2015 2015 2015 2015 2015 2015 2015 2015 2015 
2015 2015 2015 2015 2015 2015 2015 2015 2015 
2015 2015 2015 2015 2015 2015 2015 2015 2015 
2015 2015 2015 2015 2015 2015 2015 2015 2015 
2015 2015 2015 2015 2015 2015 2015 2015 2015 
2015 2015 2015 2015 2015 2015 2015 2015 2015 
2015 2015 2015 2015 2015 2015 2015 2015 2015 
2015 2015 2015 2015 2015 2015 2015 2015 2015 
2015 2015 2015 2015 2015 2015 2015 2015 2015 
2015 2015 2015 2015 2015 2015 2015 2015 2015 
2015 2015 2015 2015 2015 2015 2015 2015 2015 
2015 2015 2015 2015 2015 2015 2015 2015 2015 
2015 2015 2015 2015 2015 2015 2015 2015 2015 
2015 2015 2015 2015 2015 2015 2015 2015 2015 
2015 2015 2015 2015 2015 2015 2015 2015 2015 
2015 2015 2015 2015 2015 2015 2015 2015 2015 
2015 2015 2015 2015 2015 2015 2015 2015 2015 
2015 2015 2015 2015 2015 2015 2015 2015 2015 
2015 2015 2015 2015 2015 2015 2015 2015 2015 
2015 2015 2015 2015 2015 2015 2015 2015 2015 
2015 2015 2015 2015 2015 2015 2015 2015 2015 
2015 2015 2015 2015 2015 2015 2015 2015 2015 
2015 2015 2015 2015 2015 2015 2015 2015 2015 
2015 2015 2015 2015 2015 2015 2015 2015 2015 
2015 2015 2015 2015 2015 2015 2015 2015 2015 
2015 2015 2015 2015 2015 2015 2015 2015 2015 
2015 2015 2015 2015 2015 2015 2015 2015 2015 
2015 2015 2015 2015 2015 2015 2015 2015 2015 
2015 2015 2015 2015 2015 2015 2015 2015 2015 
2015 2015 2015 2015 2015 2015 2015 2015 2015 
2015 2015 2015 2015 2015 2015 2015 2015 2015 
2015 2015 2015 2015 2015 2015 2015 2015 2015 
2015 2015 2015 2015 2015 2015 2015 2015 2015 
2015 2015 2015 2015 2015 2015 2015 2015 2015 
2015 2015 2015 2015 2015 2015 2015 2015 2015 
2015 2015 2015 2015 2015 2015 2015 2015 2015 
2015 2015 2015 2015 2015 2015 2015 2015 2015 
2015 2015 2015 2015 2015 2015 2015 2015 2015 
2015 2015 2015 2015 2015 2015 2015 2015 2015 
2015 2015 2015 2015 2015 2015 2015 2015 2015 
2015 2015 2015 2015 2015 2015 2015 2015 2015 
2015 2015 2015 2015 2015 2015 2015 2015 2015 
2015 2015 2015 2015 2015 2015 2015 2015 2015 
2015 2015 2015 2015 2015 2015 2015 2015 2015 
2015 2015 2015 2015 2015 2015 2015 2015 2015 
2015 2015 2015 2015 2015 2015 2015 2015 2015 
2015 2015 2015 2015 2015 2015 2015 2015 2015 
2015 2015 2015 2015 2015 2015 2015 2015 2015 
2015 2015 2015 2015 2015 2015 2015 2015 2015 
2015 2015 2015 2015 2015 2015 2015 2015 2015 
2015 2015 2015 2015 2015 2015 2015 2015 2015 
2015 2015 2015 2015 2015 2015 2015 2015 2015 
2015 2015 2015 2015 2015 2015 2015 2015 2015 
2015 2015 2015 2015 2015 2015 2015 2015 2015 
2015 2015 2015 2015 2015 2015 2015 2015 2015 
2015 2015 2015 2015 2015 2015 2015 2015 2015 
2015 2015 2015 2015 2015 2015 2015 2015 2015 
2015 2015 2015 2015 2015 2015 2015 2015 2015 
2015 2015 2015 2015 2015 2015 2015 2015 2015 
2015 2015 2015 2015 2015 2015 2015 2015 2015 
2015 2015 2015 2015 2015 2015 2015 2015 2015 
2015 2015 2015 2015 2015 2015 2015 2015 2015 
2015 2015 2015 2015 2015 2015 2015 2015 2015 
2015 2015 2015 2015 2015 2015 2015 2015 2015 
2015 2015 2015 2015 2015 2015 2015 2015 2015 
2015 2015 2015 2015 2015 2015 2015 2015 2015 
2015 2015 2015 2015 2015 2015 2015 2015 2015 
2015 2015 2015 2015 2015 2015 2015 2015 2015 
2015 2015 2015 2015 2015 2015 2015 2015 2015 
2015 2015 2015 2015 2015 2015 2015 2015 2015 
2015 2015 2015 2015 2015 2015 2015 2015 2015 
2015 2015 2015 2015 2015 2015 2015 2015 2015 
2015 2015 2015 2015 2015 2015 2015 2015 2015 
2015 2015 2015 2015 2015 2015 2015 2015 2015 
2015 2015 2015 2015 2015 2015 2015 2015 2015 
2015 2015 2015 2015 2015 2015 2015 2015 2015 
2015 2015 2015 2015 2015 2015 2015 2015 2015 
2015 2015 2015 2015 2015 2015 2015 2015 2015 