# vtk DataFile Version 4.0
vtk output
ASCII
DATASET POLYDATA
POINTS 16748 float
50.0457 -1.24772 2.98013 50.0417 -1.32262 3.25366 50.3997 -1.56569 3.04982 
49.7843 -1.41867 3.12395 49.9228 -1.75017 2.71533 55.7487 -2.1918 5.91837 
56.1187 -2.69865 6.26697 56.3212 -2.71569 5.73542 54.7768 -2.03978 5.87361 
55.3671 -2.5955 6.52077 53.7787 -2.1138 5.72114 54.3317 -2.43878 6.4574 
53.5483 -2.50049 6.18736 55.9344 -2.34366 5.41417 55.6178 -2.43149 5.03074 
55.2392 -2.11553 5.27986 54.086 -2.05608 4.97139 53.0977 -2.36063 5.57115 
53.0883 -2.14595 4.90486 52.6063 -2.51407 5.04261 54.9824 -2.59092 4.57542 
53.8869 -2.36645 4.27037 53.3604 -2.52681 3.77871 53.1905 -2.21587 4.21249 
52.5153 -2.47842 4.25459 49.8873 -1.88824 3.66687 49.7244 -2.7451 4.20658 
50.4071 -2.40873 3.81464 48.9885 -2.17989 3.76591 49.1716 -2.5076 4.24629 
48.4898 -2.66924 4.1277 52.7868 -2.55585 3.67837 50.8343 -2.12838 3.26572 
50.8016 -2.78042 3.47634 51.4286 -2.68037 3.13154 49.2685 -1.90027 3.1298 
48.5016 -2.43789 3.32464 50.961 -2.44765 2.55958 49.8144 -2.65555 2.31759 
48.9164 -2.57381 2.64751 64.7449 -3.20713 23.7396 65.1732 -3.49409 24.2474 
65.4484 -3.41665 23.7081 64.5704 -3.5208 24.1427 65.0087 -3.08236 23.141 
65.5346 -3.42599 22.7519 63.9092 -3.62709 23.6224 64.3029 -3.1766 22.9129 
63.5565 -3.6101 23.0489 64.9328 -3.16386 22.1057 65.5411 -3.46431 21.6725 
64.3118 -3.33018 22.0853 63.7965 -3.49951 22.5475 65.1052 -3.30644 21.1893 
65.3501 -3.54468 20.8461 64.5624 -3.43628 21.3047 64.8708 -3.5469 20.6846 
47.0849 -3.20097 11.721 47.1422 -3.77162 12.3261 47.5878 -3.32304 11.9237 
46.508 -3.60192 12.04 47.7419 -3.12229 11.2507 47.9921 -3.38728 11.6011 
48.4028 -3.49209 10.8895 47.2633 -3.16898 10.8369 46.4776 -3.63417 11.0966 
47.8871 -3.11509 9.97184 48.7181 -3.3859 9.91536 47.2548 -3.36075 10.1477 
46.9166 -3.59673 10.4187 48.7062 -3.12887 9.0385 49.2475 -3.54063 9.40895 
49.4939 -3.51083 8.65848 48.0159 -2.93897 8.98242 47.1626 -3.39504 9.57397 
47.3498 -3.20426 8.86526 46.7444 -3.85502 9.09372 48.876 -3.17949 8.05612 
49.4111 -3.58105 7.91228 47.8651 -3.02766 8.03745 47.224 -3.36031 8.08755 
46.8844 -3.65304 8.36466 54.7433 -3.02699 7.04087 54.9443 -3.47323 7.43205 
55.4283 -3.39608 7.12456 53.7281 -2.97013 6.87216 54.2852 -3.47976 7.54162 
52.7881 -3.19804 6.75006 53.3281 -3.5007 7.47073 52.5874 -3.56416 7.17637 
48.8736 -3.41408 7.41828 48.5268 -3.49412 6.65715 48.034 -3.06121 7.02839 
47.1331 -3.35766 7.51861 47.1438 -3.15817 6.89273 46.6717 -3.74816 7.1528 
56.0539 -3.37739 6.68046 56.4824 -3.46687 6.14842 52.8281 -2.80824 5.92968 
52.1656 -3.44092 6.59467 52.11 -3.22285 5.91396 51.6734 -3.59888 6.07428 
47.7776 -3.10093 5.94009 48.4033 -3.54862 5.70471 47.0821 -3.059 5.9608 
46.4498 -3.69547 6.10745 56.005 -2.8166 5.0629 56.4836 -3.51646 5.19705 
52.0778 -3.01039 4.83128 51.4864 -3.58561 5.19764 47.9436 -3.08792 4.8119 
48.5055 -3.54014 5.06829 47.0762 -3.06447 4.96391 46.5965 -3.3791 5.13178 
55.8025 -3.25295 4.39962 54.9729 -3.04893 3.79209 55.5529 -3.38836 3.69078 
54.0638 -2.76841 3.78657 52.057 -2.94118 3.62066 51.4053 -3.55882 4.18865 
50.181 -2.98218 3.88007 49.7231 -3.41829 4.06835 48.9815 -3.30686 4.51762 
47.9191 -2.79072 3.81003 47.292 -3.13797 3.87734 46.6639 -3.55941 4.29007 
55.0478 -3.2266 3.18774 55.3589 -3.65055 3.20846 54.3214 -3.10824 3.07668 
53.1573 -2.96809 3.15531 52.0883 -2.9675 2.87088 51.1481 -3.30234 3.5234 
50.3488 -3.51087 3.69302 47.949 -2.95086 3.07707 47.4562 -3.61106 2.96596 
46.9737 -3.83155 3.51505 54.8069 -3.40531 2.75222 54.0182 -3.60591 2.40796 
52.8029 -3.48108 2.42983 51.6743 -3.54929 2.31234 50.9962 -3.06772 1.89148 
51.3091 -3.43385 1.99529 50.2192 -2.95161 1.82316 49.4886 -3.30362 1.92548 
48.8873 -3.36543 2.21655 48.0834 -3.49439 2.45741 50.913 -3.36994 1.57438 
50.4725 -3.84235 1.08716 50.3186 -3.23911 1.21659 49.5712 -3.46381 1.25739 
49.7193 -3.75008 0.661685 64.0431 -4.20343 26.7052 63.9105 -4.72884 27.4125 
64.5815 -4.35702 26.8453 63.4656 -4.61109 27.0299 64.8319 -4.09746 25.9022 
65.2099 -4.476 26.4266 65.6569 -4.39299 25.838 63.9916 -4.12084 25.8736 
63.4924 -4.43625 26.2789 65.7698 -4.16269 25.182 66.1412 -4.63826 25.5515 
66.3446 -4.62326 24.917 64.969 -3.83248 24.7307 64.1204 -4.09408 24.9866 
63.4856 -4.48247 25.2527 65.8584 -3.94999 24.298 66.5157 -4.58733 23.8963 
64.146 -3.87963 24.2388 63.4566 -4.37066 24.1937 66.0301 -3.95393 23.284 
66.5448 -4.47065 22.7551 63.1216 -4.03344 22.6486 63.151 -4.2288 23.3995 
62.692 -4.79112 23.2092 66.1435 -3.97111 22.1032 66.6928 -4.41569 21.9241 
63.7517 -3.74849 21.7804 62.9798 -4.14393 21.8264 62.4908 -4.69928 22.2816 
66.6752 -4.16516 21.0565 67.031 -4.48788 21.496 67.4218 -4.53131 20.8357 
65.8692 -3.82865 20.9574 64.1964 -3.80425 20.7541 63.3182 -4.1351 20.9132 
62.4886 -4.70209 21.095 66.8774 -4.09729 19.9501 67.5664 -4.43434 19.6993 
66.0064 -3.95871 19.9673 64.9559 -3.85765 20.079 63.8677 -4.09771 19.9836 
63.3119 -4.39626 20.0511 62.93 -4.60991 20.4078 66.9144 -4.07855 18.9501 
67.5412 -4.43059 18.6779 66.2026 -3.95929 19.109 65.276 -4.06976 18.8989 
64.2655 -4.19387 19.0963 63.4499 -4.66289 19.0709 66.9874 -4.19108 18.1772 
67.3677 -4.50332 17.829 66.1599 -4.13416 18.1957 65.361 -4.37456 18.0766 
64.621 -4.46026 18.3418 63.941 -4.62334 18.4691 66.6857 -4.45734 17.5127 
65.8939 -4.51624 17.5911 41.7777 -4.24058 14.132 42.261 -4.72829 14.3286 
42.4047 -4.63912 13.8198 40.9547 -4.14368 14.0394 41.1613 -4.61745 14.5324 
40.1539 -4.21861 13.8844 40.2151 -4.35287 14.2325 39.6849 -4.71634 13.9046 
44.9218 -4.10474 12.8689 45.0723 -4.78439 13.3853 45.5964 -4.33972 12.8995 
44.2702 -4.19217 12.7785 44.282 -4.43388 13.319 43.6799 -4.63187 13.2608 
41.7313 -4.40486 13.7957 40.813 -4.52338 13.4951 39.8903 -4.57526 13.4718 
48.0688 -3.82482 11.8852 47.773 -4.65404 12.396 48.5099 -4.46479 11.9001 
47.0197 -4.49337 12.5855 45.7355 -3.91467 11.9835 46.363 -4.42183 12.6286 
44.8588 -4.08993 11.9857 44.3643 -4.55082 11.959 43.8662 -4.57544 12.6213 
48.9471 -4.08445 11.0856 49.0254 -4.78366 11.4619 49.4757 -4.48316 10.8569 
45.8613 -3.94979 11.0898 45.3043 -4.1604 11.0942 44.6925 -4.66111 11.0049 
43.0419 -4.34598 10.9335 43.278 -4.64087 11.3175 43.2353 -4.71771 10.8845 
42.7951 -4.49125 11.0782 49.8913 -4.15935 10.0843 50.18 -4.80338 10.4442 
50.6035 -4.42551 9.84176 49.1901 -3.77279 10.0978 46.8894 -3.71744 9.84858 
46.4974 -4.1671 9.98494 45.7722 -4.34489 10.4758 45.1164 -4.50911 10.5581 
42.7477 -4.7001 10.6818 50.8261 -4.15824 8.95932 51.0456 -4.46428 9.48427 
51.5457 -4.49129 9.02168 49.868 -3.86262 9.20237 46.6346 -4.82409 9.02556 
54.9369 -3.97693 7.84895 54.9254 -4.80785 8.35369 55.5502 -4.51667 7.91007 
53.7824 -3.97653 8.02859 54.1921 -4.4911 8.39876 52.7438 -3.99152 7.85431 
53.3087 -4.62399 8.52682 51.7424 -4.12877 8.02342 52.346 -4.49499 8.57662 
50.8754 -4.0641 7.80905 50.0585 -3.9112 8.09219 46.8677 -3.71293 7.78664 
46.5723 -4.26859 8.03795 55.8715 -4.04393 7.32087 56.0416 -4.83639 7.47212 
56.376 -4.28695 6.78652 51.8871 -3.8323 6.94021 50.9975 -4.05953 6.9292 
50.0375 -4.06423 6.98904 49.2933 -3.82677 7.19877 46.2436 -4.55965 7.1117 
56.6821 -4.43218 5.98544 50.991 -3.96915 5.80257 49.9916 -4.11396 5.9526 
49.1085 -3.93954 6.22988 45.9951 -4.35251 6.43746 46.011 -4.20139 5.8278 
45.6374 -4.86954 6.11 56.8835 -4.11518 4.97228 57.0212 -4.83365 5.46561 
57.2876 -4.44779 4.78212 50.8022 -3.99469 4.63563 50.1125 -4.13532 5.04938 
49.159 -3.92857 5.1598 46.2567 -4.08732 4.98222 45.834 -4.62586 5.38401 
57.0664 -4.09618 4.1779 57.5289 -4.50551 3.8743 56.2117 -3.92009 3.87159 
50.736 -3.86328 3.89239 49.9073 -3.93607 4.2671 46.399 -4.5927 3.89042 
56.9688 -4.2096 3.28277 57.3619 -4.48527 2.83112 56.3715 -4.63638 2.8573 
55.7774 -4.65192 3.40932 55.1155 -4.51969 3.49569 54.8301 -3.97456 2.75842 
54.5651 -4.65014 2.93894 47.1959 -4.24997 2.93854 46.8644 -4.58904 3.26419 
56.9154 -4.59047 2.46636 54.3164 -4.41027 2.21057 53.9868 -4.08241 1.88978 
53.3286 -4.00648 1.86542 52.3242 -4.09452 1.95025 51.5621 -4.35612 2.08705 
51.1758 -4.31317 2.1729 51.0913 -3.84019 1.91276 50.7547 -4.63622 1.60553 
48.8269 -3.79325 1.58262 48.0864 -4.02481 1.80918 47.4481 -4.33125 2.22033 
53.7319 -4.57308 1.63495 52.796 -4.67696 1.5135 51.7886 -4.81564 1.66458 
50.3697 -4.69076 0.883931 49.0083 -3.90369 0.874008 48.2939 -4.23526 1.00907 
47.6749 -4.65958 1.25463 49.8678 -4.48389 0.482875 48.9873 -4.36889 0.469828 
48.2629 -4.79993 0.639865 64.9263 -5.16493 27.8607 64.918 -5.45917 28.3744 
65.5203 -5.46951 27.9834 64.2116 -5.05694 27.8571 64.3161 -5.46251 28.4279 
63.6022 -5.40708 28.0945 65.7624 -5.16955 27.19 66.1211 -5.63615 27.5367 
66.339 -5.62415 26.88 64.9402 -4.78169 27.1341 62.9828 -5.01962 26.7163 
62.9511 -5.48065 27.53 62.4685 -5.65465 27.01 65.8906 -4.90112 26.322 
66.4462 -5.41932 25.8716 63 -4.97902 25.7641 62.5109 -5.50558 26.2742 
66.6995 -5.36984 24.892 62.9777 -5.02334 24.7103 62.5242 -5.53293 25.2568 
66.9328 -5.13729 24.072 67.0539 -5.65098 24.5645 67.2774 -5.60768 23.9077 
62.9012 -4.86997 23.8749 62.5084 -5.45125 24.1061 66.9831 -4.989 23.2308 
67.5008 -5.69838 22.8231 62.312 -5.40794 23.1152 67.1711 -4.87618 22.0324 
67.5982 -5.50291 21.8888 62.0766 -5.3634 22.4197 62.0049 -5.0987 21.6751 
61.6656 -5.60213 22.0559 67.8346 -5.11929 21.1811 68.0169 -5.84088 21.3853 
68.2914 -5.50419 20.7389 61.9661 -5.11679 21.0814 61.5496 -5.51528 21.2941 
68.0654 -4.95578 20.2604 68.4047 -5.60661 19.9901 62.9806 -4.90428 19.6331 
62.4827 -5.20627 20.0903 61.8999 -5.39718 20.6208 68.0695 -4.94599 19.2432 
68.4083 -5.59727 18.9695 62.9808 -5.11904 19.0099 62.4923 -5.69687 19.0383 
68.0345 -4.91928 17.9183 68.656 -5.50943 18.0052 65.1672 -4.7465 17.6468 
64.2909 -5.01409 17.7551 63.5179 -5.21409 18.1295 62.975 -5.47328 18.4408 
68.6922 -5.15093 17.0466 69.0846 -5.60906 17.5293 69.3008 -5.65759 17.0909 
68.0523 -4.90566 16.9221 67.3345 -4.91115 16.9074 66.1162 -4.95782 17.0243 
65.112 -5.1626 17.0634 64.5101 -5.47097 17.1063 63.7924 -5.80875 17.4868 
57.9956 -5.33246 16.975 58.2778 -5.67308 17.2358 58.2716 -5.4999 16.8448 
[...]
CELL_DATA 33516
SCALARS scalars float
LOOKUP_TABLE default
2022 2022 2022 2022 2022 2022 2022 2022 2022 
2022 2022 2022 2022 2022 2022 2022 2022 2022 
2022 2022 2022 2022 2022 2022 2022 2022 2022 
2022 2022 2022 2022 2022 2022 2022 2022 2022 
2022 2022 2022 2022 2022 2022 2022 2022 2022 
2022 2022 2022 2022 2022 2022 2022 2022 2022 
2022 2022 2022 2022 2022 2022 2022 2022 2022 
2022 2022 2022 2022 2022 2022 2022 2022 2022 
2022 2022 2022 2022 2022 2022 2022 2022 2022 
2022 2022 2022 2022 2022 2022 2022 2022 2022 
2022 2022 2022 2022 2022 2022 2022 2022 2022 
2022 2022 2022 2022 2022 2022 2022 2022 2022 
2022 2022 2022 2022 2022 2022 2022 2022 2022 
2022 2022 2022 2022 2022 2022 2022 2022 2022 
2022 2022 2022 2022 2022 2022 2022 2022 2022 
2022 2022 2022 2022 2022 2022 2022 2022 2022 
2022 2022 2022 2022 2022 2022 2022 2022 2022 
2022 2022 2022 2022 2022 2022 2022 2022 2022 
2022 2022 2022 2022 2022 2022 2022 2022 2022 
2022 2022 2022 2022 2022 2022 2022 2022 2022 
2022 2022 2022 2022 2022 2022 2022 2022 2022 
2022 2022 2022 2022 2022 2022 2022 2022 2022 
2022 2022 2022 2022 2022 2022 2022 2022 2022 
2022 2022 2022 2022 2022 2022 2022 2022 2022 
2022 2022 2022 2022 2022 2022 2022 2022 2022 
2022 2022 2022 2022 2022 2022 2022 2022 2022 
2022 2022 2022 2022 2022 2022 2022 2022 2022 
2022 2022 2022 2022 2022 2022 2022 2022 2022 
2022 2022 2022 2022 2022 2022 2022 2022 2022 
2022 2022 2022 2022 2022 2022 2022 2022 2022 
2022 2022 2022 2022 2022 2022 2022 2022 2022 
2022 2022 2022 2022 2022 2022 2022 2022 2022 
2022 2022 2022 2022 2022 2022 2022 2022 2022 
2022 2022 2022 2022 2022 2022 2022 2022 2022 
2022 2022 2022 2022 2022 2022 2022 2022 2022 
2022 2022 2022 2022 2022 2022 2022 2022 2022 
2022 2022 2022 2022 2022 2022 2022 2022 2022 
2022 2022 2022 2022 2022 2022 2022 2022 2022 
2022 2022 2022 2022 2022 2022 2022 2022 2022 
2022 2022 2022 2022 2022 2022 2022 2022 2022 
2022 2022 2022 2022 2022 2022 2022 2022 2022 
2022 2022 2022 2022 2022 2022 2022 2022 2022 
2022 2022 2022 2022 2022 2022 2022 2022 2022 
2022 2022 2022 2022 2022 2022 2022 2022 2022 
2022 2022 2022 2022 2022 2022 2022 2022 2022 
2022 2022 2022 2022 2022 2022 2022 2022 2022 
2022 2022 2022 2022 2022 2022 2022 2022 2022 
2022 2022 2022 2022 2022 2022 2022 2022 2022 
2022 2022 2022 2022 2022 2022 2022 2022 2022 
2022 2022 2022 2022 2022 2022 2022 2022 2022 
2022 2022 2022 2022 2022 2022 2022 2022 2022 
2022 2022 2022 2022 2022 2022 2022 2022 2022 
2022 2022 2022 2022 2022 2022 2022 2022 2022 
2022 2022 2022 2022 2022 2022 2022 2022 2022 
2022 2022 2022 2022 2022 2022 2022 2022 2022 
2022 2022 2022 2022 2022 2022 2022 2022 2022 
2022 2022 2022 2022 2022 2022 2022 2022 2022 
2022 2022 2022 2022 2022 2022 2022 2022 2022 
2022 2022 2022 2022 2022 2022 2022 2022 2022 
2022 2022 2022 2022 2022 2022 2022 2022 2022 
2022 2022 2022 2022 2022 2022 2022 2022 2022 
2022 2022 2022 2022 2022 2022 2022 2022 2022 
2022 2022 2022 2022 2022 2022 2022 2022 2022 
2022 2022 2022 2022 2022 2022 2022 2022 2022 
2022 2022 2022 2022 2022 2022 2022 2022 2022 
2022 2022 2022 2022 2022 2022 2022 2022 2022 
2022 2022 2022 2022 2022 2022 2022 2022 2022 
2022 2022 2022 2022 2022 2022 2022 2022 2022 
2022 2022 2022 2022 2022 2022 2022 2022 2022 
2022 2022 2022 2022 2022 2022 2022 2022 2022 
2022 2022 2022 2022 2022 2022 2022 2022 2022 
2022 2022 2022 2022 2022 2022 2022 2022 2022 
2022 2022 2022 2022 2022 2022 2022 2022 2022 
2022 2022 2022 2022 2022 2022 2022 2022 2022 
2022 2022 2022 2022 2022 2022 2022 2022 2022 
2022 2022 2022 2022 2022 2022 2022 2022 2022 
2022 2022 2022 2022 2022 2022 2022 2022 2022 
2022 2022 2022 2022 2022 2022 2022 2022 2022 
2022 2022 2022 2022 2022 2022 2022 2022 2022 
2022 2022 2022 2022 2022 2022 2022 2022 2022 
2022 2022 2022 2022 2022 2022 2022 2022 2022 
2022 2022 2022 2022 2022 2022 2022 2022 2022 
2022 2022 2022 2022 2022 2022 2022 2022 2022 
2022 2022 2022 2022 2022 2022 2022 2022 2022 
2022 2022 2022 2022 2022 2022 2022 2022 2022 
2022 2022 2022 2022 2022 2022 2022 2022 2022 
2022 2022 2022 2022 2022 2022 2022 2022 2022 
2022 2022 2022 2022 2022 2022 2022 2022 2022 
2022 2022 2022 2022 2022 2022 2022 2022 2022 
2022 2022 2022 2022 2022 2022 2022 2022 2022 
2022 2022 2022 2022 2022 2022 2022 2022 2022 
2022 2022 2022 2022 2022 2022 2022 2022 2022 
2022 2022 2022 2022 2022 2022 2022 2022 2022 
2022 2022 2022 2022 2022 2022 2022 2022 2022 
2022 2022 2022 2022 2022 2022 2022 2022 2022 
2022 2022 2022 2022 2022 2022 2022 2022 2022 
2022 2022 2022 2022 2022 2022 2022 2022 2022 
2022 2022 2022 2022 2022 2022 2022 2022 2022 
2022 2022 2022 2022 2022 2022 2022 2022 2022 
2022 2022 2022 2022 2022 2022 2022 2022 2022 
2022 2022 2022 2022 2022 2022 2022 2022 2022 
2022 2022 2022 2022 2022 2022 2022 2022 2022 
2022 2022 2022 2022 2022 2022 2022 2022 2022 
2022 2022 2022 2022 2022 2022 2022 2022 2022 
2022 2022 2022 2022 2022 2022 2022 2022 2022 
2022 2022 2022 2022 2022 2022 2022 2022 2022 
2022 2022 2022 2022 2022 2022 2022 2022 2022 
2022 2022 2022 2022 2022 2022 2022 2022 2022 
2022 2022 2022 2022 2022 2022 2022 2022 2022 
2022 2022 2022 2022 2022 2022 2022 2022 2022 
2022 2022 2022 2022 2022 2022 2022 2022 2022 
2022 2022 2022 2022 2022 2022 2022 2022 2022 
2022 2022 2022 2022 2022 2022 2022 2022 2022 
2022 2022 2022 2022 2022 2022 2022 2022 2022 
2022 2022 2022 2022 2022 2022 2022 2022 2022 
2022 2022 2022 2022 2022 2022 2022 2022 2022 
2022 2022 2022 2022 2022 2022 2022 2022 2022 
2022 2022 2022 2022 2022 2022 2022 2022 2022 
2022 2022 2022 2022 2022 2022 2022 2022 2022 
2022 2022 2022 2022 2022 2022 2022 2022 2022 
2022 2022 2022 2022 2022 2022 2022 2022 2022 
2022 2022 2022 2022 2022 2022 2022 2022 2022 
2022 2022 2022 2022 2022 2022 2022 2022 2022 
2022 2022 2022 2022 2022 2022 2022 2022 2022 
2022 2022 2022 2022 2022 2022 2022 2022 2022 
2022 2022 2022 2022 2022 2022 2022 2022 2022 
2022 2022 2022 2022 2022 2022 2022 2022 2022 
2022 2022 2022 2022 2022 2022 2022 2022 2022 
2022 2022 2022 2022 2022 2022 2022 2022 2022 
2022 2022 2022 2022 2022 2022 2022 2022 2022 
2022 2022 2022 2022 2022 2022 2022 2022 2022 
2022 2022 2022 2022 2022 2022 2022 2022 2022 
2022 2022 2022 2022 2022 2022 2022 2022 2022 
2022 2022 2022 2022 2022 2022 2022 2022 2022 
2022 2022 2022 2022 2022 2022 2022 2022 2022 
2022 2022 2022 2022 2022 2022 2022 2022 2022 
2022 2022 2022 2022 2022 2022 2022 2022 2022 
2022 2022 2022 2022 2022 2022 2022 2022 2022 
2022 2022 2022 2022 2022 2022 2022 2022 2022 
2022 2022 2022 2022 2022 2022 2022 2022 2022 
2022 2022 2022 2022 2022 2022 2022 2022 2022 
2022 2022 2022 2022 2022 2022 2022 2022 2022 
2022 2022 2022 2022 2022 2022 2022 2022 2022 
2022 2022 2022 2022 2022 2022 2022 2022 2022 
2022 2022 2022 2022 2022 2022 2022 2022 2022 
2022 2022 2022 2022 2022 2022 2022 2022 2022 
2022 2022 2022 2022 2022 2022 2022 2022 2022 
2022 2022 2022 2022 2022 2022 2022 2022 2022 
2022 2022 2022 2022 2022 2022 2022 2022 2022 
2022 2022 2022 2022 2022 2022 2022 2022 2022 
2022 2022 2022 2022 2022 2022 2022 2022 2022 
2022 2022 2022 2022 2022 2022 2022 2022 2022 
2022 2022 2022 2022 2022 2022 2022 2022 2022 
2022 2022 2022 2022 2022 2022 2022 2022 2022 
2022 2022 2022 2022 2022 2022 2022 2022 2022 
2022 2022 2022 2022 2022 2022 2022 2022 2022 
2022 2022 2022 2022 2022 2022 2022 2022 2022 
2022 2022 2022 2022 2022 2022 2022 2022 2022 
2022 2022 2022 2022 2022 2022 2022 2022 2022 
2022 2022 2022 2022 2022 2022 2022 2022 2022 
2022 2022 2022 2022 2022 2022 2022 2022 2022 
2022 2022 2022 2022 2022 2022 2022 2022 2022 
2022 2022 2022 2022 2022 2022 2022 2022 2022 
2022 2022 2022 2022 2022 2022 2022 2022 2022 
2022 2022 2022 2022 2022 2022 2022 2022 2022 
2022 2022 2022 2022 2022 2022 2022 2022 2022 
2022 2022 2022 2022 2022 2022 2022 2022 2022 
2022 2022 2022 2022 2022 2022 2022 2022 2022 
2022 2022 2022 2022 2022 2022 2022 2022 2022 
2022 2022 2022 2022 2022 2022 2022 2022 2022 
2022 2022 2022 2022 2022 2022 2022 2022 2022 
2022 2022 2022 2022 2022 2022 2022 2022 2022 
2022 2022 2022 2022 2022 2022 2022 2022 2022 
2022 2022 2022 2022 2022 2022 2022 2022 2022 
2022 2022 2022 2022 2022 2022 2022 2022 2022 
2022 2022 2022 2022 2022 2022 2022 2022 2022 
2022 2022 2022 2022 2022 2022 2022 2022 2022 
2022 2022 2022 2022 2022 2022 2022 2022 2022 
2022 2022 2022 2022 2022 2022 2022 2022 2022 
2022 2022 2022 2022 2022 2022 2022 2022 2022 
2022 2022 2022 2022 2022 2022 2022 2022 2022 
2022 2022 2022 2022 2022 2022 2022 2022 2022 
2022 2022 2022 2022 2022 2022 2022 2022 2022 
2022 2022 2022 2022 2022 2022 2022 2022 2022 
2022 2022 2022 2022 2022 2022 2022 2022 2022 
2022 2022 2022 2022 2022 2022 2022 2022 2022 
2022 2022 2022 2022 2022 2022 2022 2022 2022 
2022 2022 2022 2022 2022 2022 2022 2022 2022 
2022 2022 2022 2022 2022 2022 2022 2022 2022 
2022 2022 2022 2022 2022 2022 2022 2022 2022 
2022 2022 2022 2022 2022 2022 2022 2022 2022 
2022 2022 2022 2022 2022 2022 2022 2022 2022 
2022 2022 2022 2022 2022 2022 2022 2022 2022 
2022 2022 2022 2022 2022 2022 2022 2022 2022 
2022 2022 2022 2022 2022 2022 2022 2022 2022 
2022 2022 2022 2022 2022 2022 2022 2022 2022 
2022 2022 2022 2022 2022 2022 2022 2022 2022 
2022 2022 2022 2022 2022 2022 2022 2022 2022 
2022 2022 2022 2022 2022 2022 2022 2022 2022 
2022 2022 2022 2022 2022 2022 2022 2022 2022 
2022 2022 2022 2022 2022 2022 2022 2022 2022 
2022 2022 2022 2022 2022 2022 2022 2022 2022 
2022 2022 2022 2022 2022 2022 2022 2022 2022 
2022 2022 2022 2022 2022 2022 2022 2022 2022 
2022 2022 2022 2022 2022 2022 2022 2022 2022 
2022 2022 2022 2022 2022 2022 2022 2022 2022 
2022 2022 2022 2022 2022 2022 2022 2022 2022 
2022 2022 2022 2022 2022 2022 2022 2022 2022 
2022 2022 2022 2022 2022 2022 2022 2022 2022 
2022 2022 2022 2022 2022 2022 2022 2022 2022 
2022 2022 2022 2022 2022 2022 2022 2022 2022 
2022 2022 2022 2022 2022 2022 2022 2022 2022 
2022 2022 2022 2022 2022 2022 2022 2022 2022 
2022 2022 2022 2022 2022 2022 2022 2022 2022 
2022 2022 2022 2022 2022 2022 2022 2022 2022 
2022 2022 2022 2022 2022 2022 2022 2022 2022 
2022 2022 2022 2022 2022 2022 2022 2022 2022 
2022 2022 2022 2022 2022 2022 2022 2022 2022 
2022 2022 2022 2022 2022 2022 2022 2022 2022 
2022 2022 2022 2022 2022 2022 2022 2022 2022 
2022 2022 2022 2022 2022 2022 2022 2022 2022 
2022 2022 2022 2022 2022 2022 2022 2022 2022 
2022 2022 2022 2022 2022 2022 2022 2022 2022 
2022 2022 2022 2022 2022 2022 2022 2022 2022 
2022 2022 2022 2022 2022 2022 2022 2022 2022 
2022 2022 2022 2022 2022 2022 2022 2022 2022 
2022 2022 2022 2022 2022 2022 2022 2022 2022 
2022 2022 2022 2022 2022 2022 2022 2022 2022 
2022 2022 2022 2022 2022 2022 2022 2022 2022 
2022 2022 2022 2022 2022 2022 2022 2022 2022 
2022 2022 2022 2022 2022 2022 2022 2022 2022 
2022 2022 2022 2022 2022 2022 2022 2022 2022 
2022 2022 2022 2022 2022 2022 2022 2022 2022 
2022 2022 2022 2022 2022 2022 2022 2022 2022 
2022 2022 2022 2022 2022 2022 2022 2022 2022 
2022 2022 2022 2022 2022 2022 2022 2022 2022 
2022 2022 2022 2022 2022 2022 2022 2022 2022 
2022 2022 2022 2022 2022 2022 2022 2022 2022 
2022 2022 2022 2022 2022 2022 2022 2022 2022 
2022 2022 2022 2022 2022 2022 2022 2022 2022 
2022 2022 2022 2022 2022 2022 2022 2022 2022 
2022 2022 2022 2022 2022 2022 2022 2022 2022 
2022 2022 2022 2022 2022 2022 2022 2022 2022 
2022 2022 2022 2022 2022 2022 2022 2022 2022 
2022 2022 2022 2022 2022 2022 2022 2022 2022 
2022 2022 2022 2022 2022 2022 2022 2022 2022 
2022 2022 2022 2022 2022 2022 2022 2022 2022 
2022 2022 2022 2022 2022 2022 2022 2022 2022 
2022 2022 2022 2022 2022 2022 2022 2022 2022 
2022 2022 2022 2022 2022 2022 2022 2022 2022 
2022 2022 2022 2022 2022 2022 2022 2022 2022 
2022 2022 2022 2022 2022 2022 2022 2022 2022 
2022 2022 2022 2022 2022 2022 2022 2022 2022 
2022 2022 2022 2022 2022 2022 2022 2022 2022 
2022 2022 2022 2022 2022 2022 2022 2022 2022 
2022 2022 2022 2022 2022 2022 2022 2022 2022 
2022 2022 2022 2022 2022 2022 2022 2022 2022 
2022 2022 2022 2022 2022 2022 2022 2022 2022 
2022 2022 2022 2022 2022 2022 2022 2022 2022 
2022 2022 2022 2022 2022 2022 2022 2022 2022 
2022 2022 2022 2022 2022 2022 2022 2022 2022 
2022 2022 2022 2022 2022 2022 2022 2022 2022 
2022 2022 2022 2022 2022 2022 2022 2022 2022 
2022 2022 2022 2022 2022 2022 2022 2022 2022 
2022 2022 2022 2022 2022 2022 2022 2022 2022 
2022 2022 2022 2022 2022 2022 2022 2022 2022 
2022 2022 2022 2022 2022 2022 2022 2022 2022 
2022 2022 2022 2022 2022 2022 2022 2022 2022 
2022 2022 2022 2022 2022 2022 2022 2022 2022 
2022 2022 2022 2022 2022 2022 2022 2022 2022 
2022 2022 2022 2022 2022 2022 2022 2022 2022 
2022 2022 2022 2022 2022 2022 2022 2022 2022 
2022 2022 2022 2022 2022 2022 2022 2022 2022 
2022 2022 2022 2022 2022 2022 2022 2022 2022 
2022 2022 2022 2022 2022 2022 2022 2022 2022 
2022 2022 2022 2022 2022 2022 2022 2022 2022 
2022 2022 2022 2022 2022 2022 2022 2022 2022 
2022 2022 2022 2022 2022 2022 2022 2022 2022 
2022 2022 2022 2022 2022 2022 2022 2022 2022 
2022 2022 2022 2022 2022 2022 2022 2022 2022 
2022 2022 2022 2022 2022 2022 2022 2022 2022 
2022 2022 2022 2022 2022 2022 2022 2022 2022 
2022 2022 2022 2022 2022 2022 2022 2022 2022 
2022 2022 2022 2022 2022 2022 2022 2022 2022 
2022 2022 2022 2022 2022 2022 2022 2022 2022 
2022 2022 2022 2022 2022 2022 2022 2022 2022 
2022 2022 2022 2022 2022 2022 2022 2022 2022 
2022 2022 2022 2022 2022 2022 2022 2022 2022 
2022 2022 2022 2022 2022 2022 2022 2022 2022 
2022 2022 2022 2022 2022 2022 2022 2022 2022 
2022 2022 2022 2022 2022 2022 2022 2022 2022 
2022 2022 2022 2022 2022 2022 2022 2022 2022 
2022 2022 2022 2022 2022 2022 2022 2022 2022 
2022 2022 2022 2022 2022 2022 2022 2022 2022 
2022 2022 2022 2022 2022 2022 2022 2022 2022 
2022 2022 2022 2022 2022 2022 2022 2022 2022 
2022 2022 2022 2022 2022 2022 2022 2022 2022 
2022 2022 2022 2022 2022 2022 2022 2022 2022 
2022 2022 2022 2022 2022 2022 2022 2022 2022 
2022 2022 2022 2022 2022 2022 2022 2022 2022 
2022 2022 2022 2022 2022 2022 2022 2022 2022 
2022 2022 2022 2022 2022 2022 2022 2022 2022 
2022 2022 2022 2022 2022 2022 2022 2022 2022 
2022 2022 2022 2022 2022 2022 2022 2022 2022 
2022 2022 2022 2022 2022 2022 2022 2022 2022 
2022 2022 2022 2022 2022 2022 2022 2022 2022 
2022 2022 2022 2022 2022 2022 2022 2022 2022 
2022 2022 2022 2022 2022 2022 2022 2022 2022 
2022 2022 2022 2022 2022 2022 2022 2022 2022 
2022 2022 2022 2022 2022 2022 2022 2022 2022 
2022 2022 2022 2022 2022 2022 2022 2022 2022 
2022 2022 2022 2022 2022 2022 2022 2022 2022 
2022 2022 2022 2022 2022 2022 2022 2022 2022 
2022 2022 2022 2022 2022 2022 2022 2022 2022 
2022 2022 2022 2022 2022 2022 2022 2022 2022 
2022 2022 2022 2022 2022 2022 2022 2022 2022 
2022 2022 2022 2022 2022 2022 2022 2022 2022 
2022 2022 2022 2022 2022 2022 2022 2022 2022 
2022 2022 2022 2022 2022 2022 2022 2022 2022 
2022 2022 2022 2022 2022 2022 2022 2022 2022 
2022 2022 2022 2022 2022 2022 2022 2022 2022 
2022 2022 2022 2022 2022 2022 2022 2022 2022 
2022 2022 2022 2022 2022 2022 2022 2022 2022 
2022 2022 2022 2022 2022 2022 2022 2022 2022 
2022 2022 2022 2022 2022 2022 2022 2022 2022 
2022 2022 2022 2022 2022 2022 2022 2022 2022 
2022 2022 2022 2022 2022 2022 2022 2022 2022 
2022 2022 2022 2022 2022 2022 2022 2022 2022 
2022 2022 2022 2022 2022 2022 2022 2022 2022 
2022 2022 2022 2022 2022 2022 2022 2022 2022 
2022 2022 2022 2022 2022 2022 2022 2022 2022 
2022 2022 2022 2022 2022 2022 2022 2022 2022 
2022 2022 2022 2022 2022 2022 2022 2022 2022 
2022 2022 2022 2022 2022 2022 2022 2022 2022 
2022 2022 2022 2022 2022 2022 2022 2022 2022 
2022 2022 2022 2022 2022 2022 2022 2022 2022 
2022 2022 2022 2022 2022 2022 2022 2022 2022 
2022 2022 2022 2022 2022 2022 2022 2022 2022 
2022 2022 2022 2022 2022 2022 2022 2022 2022 
2022 2022 2022 2022 2022 2022 2022 2022 2022 
2022 2022 2022 2022 2022 2022 2022 2022 2022 
2022 2022 2022 2022 2022 2022 2022 2022 2022 
2022 2022 2022 2022 2022 2022 2022 2022 2022 
2022 2022 2022 2022 2022 2022 2022 2022 2022 
2022 2022 2022 2022 2022 2022 2022 2022 2022 
2022 2022 2022 2022 2022 2022 2022 2022 2022 
2022 2022 2022 2022 2022 2022 2022 2022 2022 
2022 2022 2022 2022 2022 2022 2022 2022 2022 
2022 2022 2022 2022 2022 2022 2022 2022 2022 
2022 2022 2022 2022 2022 2022 2022 2022 2022 
2022 2022 2022 2022 2022 2022 2022 2022 2022 
2022 2022 2022 2022 2022 2022 2022 2022 2022 
2022 2022 2022 2022 2022 2022 2022 2022 2022 
2022 2022 2022 2022 2022 2022 2022 2022 2022 
2022 2022 2022 2022 2022 2022 2022 2022 2022 
2022 2022 2022 2022 2022 2022 2022 2022 2022 
2022 2022 2022 2022 2022 2022 2022 2022 2022 
2022 2022 2022 2022 2022 2022 2022 2022 2022 
2022 2022 2022 2022 2022 2022 2022 2022 2022 
2022 2022 2022 2022 2022 2022 2022 2022 2022 
2022 2022 2022 2022 2022 2022 2022 2022 2022 
2022 2022 2022 2022 2022 2022 2022 2022 2022 
2022 2022 2022 2022 2022 2022 2022 2022 2022 
2022 2022 2022 2022 2022 2022 2022 2022 2022 
2022 2022 2022 2022 2022 2022 2022 2022 2022 
2022 2022 2022 2022 2022 2022 2022 2022 2022 
2022 2022 2022 2022 2022 2022 2022 2022 2022 
2022 2022 2022 2022 2022 2022 2022 2022 2022 
2022 2022 2022 2022 2022 2022 2022 2022 2022 
2022 2022 2022 2022 2022 2022 2022 2022 2022 
2022 2022 2022 2022 2022 2022 2022 2022 2022 
2022 2022 2022 2022 2022 2022 2022 2022 2022 
2022 2022 2022 2022 2022 2022 2022 2022 2022 
2022 2022 2022 2022 2022 2022 2022 2022 2022 
2022 2022 2022 2022 2022 2022 2022 2022 2022 
2022 2022 2022 2022 2022 2022 2022 2022 2022 
2022 2022 2022 2022 2022 2022 2022 2022 2022 
2022 2022 2022 2022 2022 2022 2022 2022 2022 
2022 2022 2022 2022 2022 2022 2022 2022 2022 
2022 2022 2022 2022 2022 2022 2022 2022 2022 
2022 2022 2022 2022 2022 2022 2022 2022 2022 
2022 2022 2022 2022 2022 2022 2022 2022 2022 
2022 2022 2022 2022 2022 2022 2022 2022 2022 
2022 2022 2022 2022 2022 2022 2022 2022 2022 
2022 2022 2022 2022 2022 2022 2022 2022 2022 
2022 2022 2022 2022 2022 2022 2022 2022 2022 
2022 2022 2022 2022 2022 2022 2022 2022 2022 
2022 2022 2022 2022 2022 2022 2022 2022 2022 
2022 2022 2022 2022 2022 2022 2022 2022 2022 
2022 2022 2022 2022 2022 2022 2022 2022 2022 
2022 2022 2022 2022 2022 2022 2022 2022 2022 
2022 2022 2022 2022 2022 2022 2022 2022 2022 
2022 2022 2022 2022 2022 2022 2022 2022 2022 
2022 2022 2022 2022 2022 2022 2022 2022 2022 
2022 2022 2022 2022 2022 2022 2022 2022 2022 
2022 2022 2022 2022 2022 2022 2022 2022 2022 
2022 2022 2022 2022 2022 2022 2022 2022 2022 
2022 2022 2022 2022 2022 2022 2022 2022 2022 
2022 2022 2022 2022 2022 2022 2022 2022 2022 
2022 2022 2022 2022 2022 2022 2022 2022 2022 
2022 2022 2022 2022 2022 2022 2022 2022 2022 
2022 2022 2022 2022 2022 2022 2022 2022 2022 
2022 2022 2022 2022 2022 2022 2022 2022 2022 
2022 2022 2022 2022 2022 2022 2022 2022 2022 
2022 2022 2022 2022 2022 2022 2022 2022 2022 
2022 2022 2022 2022 2022 2022 2022 2022 2022 
2022 2022 2022 2022 2022 2022 2022 2022 2022 
2022 2022 2022 2022 2022 2022 2022 2022 2022 
2022 2022 2022 2022 2022 2022 2022 2022 2022 
2022 2022 2022 2022 2022 2022 2022 2022 2022 
2022 2022 2022 2022 2022 2022 2022 2022 2022 
2022 2022 2022 2022 2022 2022 2022 2022 2022 
2022 2022 2022 2022 2022 2022 2022 2022 2022 
2022 2022 2022 2022 2022 2022 2022 2022 2022 
2022 2022 2022 2022 2022 2022 2022 2022 2022 
2022 2022 2022 2022 2022 2022 2022 2022 2022 
2022 2022 2022 2022 2022 2022 2022 2022 2022 
2022 2022 2022 2022 2022 2022 2022 2022 2022 
2022 2022 2022 2022 2022 2022 2022 2022 2022 
2022 2022 2022 2022 2022 2022 2022 2022 2022 
2022 2022 2022 2022 2022 2022 2022 2022 2022 
2022 2022 2022 2022 2022 2022 2022 2022 2022 
2022 2022 2022 2022 2022 2022 2022 2022 2022 
2022 2022 2022 2022 2022 2022 2022 2022 2022 
2022 2022 2022 2022 2022 2022 2022 2022 2022 
2022 2022 2022 2022 2022 2022 2022 2022 2022 
2022 2022 2022 2022 2022 2022 2022 2022 2022 
2022 2022 2022 2022 2022 2022 2022 2022 2022 
2022 2022 2022 2022 2022 2022 2022 2022 2022 
2022 2022 2022 2022 2022 2022 2022 2022 2022 
2022 2022 2022 2022 2022 2022 2022 2022 2022 
2022 2022 2022 2022 2022 2022 2022 2022 2022 
2022 2022 2022 2022 2022 2022 2022 2022 2022 