# vtk DataFile Version 4.0
vtk output
ASCII
DATASET POLYDATA
POINTS 7818 float
-12.1969 -62.2654 11.0368 -12.1802 -62.571 11.3568 -11.6763 -62.5307 11.126 
-13.0725 -62.172 10.8429 -12.7824 -62.4371 11.2734 -14.1875 -62.1226 10.6844 
-13.6376 -62.6092 11.3933 -14.4693 -62.4699 11.094 -12.0083 -62.5905 10.5915 
-13.0385 -62.3406 10.334 -13.5916 -62.5037 9.82721 -13.8353 -62.1341 10.2123 
-14.8991 -62.3081 10.5031 -14.7128 -62.1999 10.0257 -15.3442 -62.6981 10.1114 
-14.3529 -62.6219 9.51969 -15.0204 -62.6887 9.65596 -13.0602 -62.2742 5.96113 
-13.178 -62.6379 6.19588 -12.5377 -62.7 6.04455 -13.5029 -62.5433 6.00456 
-13.1594 -62.7762 5.68817 -12.0585 -63.3414 12.7932 -12.0274 -63.4987 13.1225 
-11.8388 -63.5439 12.7243 -12.2053 -63.5203 12.963 -13.9174 -63.595 13.2458 
-13.7275 -63.6363 12.8471 -14.1921 -63.2096 12.7463 -14.4143 -63.611 13.2226 
-11.8814 -63.0651 11.8767 -11.3471 -63.5166 12.0102 -12.4934 -63.6442 12.3704 
-14.186 -62.9616 11.9172 -13.4923 -63.497 12.1068 -14.7841 -63.3467 12.5924 
-15.0743 -63.103 11.8523 -15.4991 -63.7854 12.0796 -10.0685 -63.3046 11.0175 
-9.84699 -63.751 11.1895 -9.70591 -63.7376 10.8806 -10.9805 -63.0423 11.0766 
-10.5335 -63.6694 11.5349 -12.8547 -63.1292 11.6936 -15.1826 -62.8027 10.9544 
-15.8878 -63.5186 11.4619 -15.8561 -63.2093 11.0943 -16.2531 -63.7508 11.0155 
-10.1546 -63.4787 10.7072 -10.9977 -63.4423 10.3759 -12.073 -63.0524 9.86683 
-11.4044 -63.518 9.67 -12.9335 -62.7394 9.85978 -15.9416 -63.6196 10.4894 
-15.4554 -63.5139 9.70978 -12.0271 -63.0933 8.90209 -11.3101 -63.4352 8.96154 
-13.0171 -62.965 9.0116 -13.8695 -62.9763 9.022 -14.5317 -63.4699 8.79993 
-14.8831 -63.2128 9.32881 -11.3078 -63.2319 8.13226 -10.7896 -63.5635 8.4692 
-10.6718 -63.5466 8.00916 -11.9967 -62.9456 7.99784 -12.7381 -63.0706 7.93152 
-13.7208 -63.2144 8.10193 -14.3296 -63.6292 8.01699 -9.96087 -63.4275 7.01371 
-9.81509 -63.562 7.22284 -9.68887 -63.5152 6.97998 -11.1878 -63.7852 7.35708 
-10.1862 -63.608 7.13401 -11.4523 -63.6194 6.74506 -11.9078 -63.0882 6.96105 
-12.5788 -63.4156 7.14042 -13.0569 -63.7704 7.30663 -14.0363 -63.6945 7.43891 
-8.91247 -63.4274 5.97443 -8.92487 -63.5038 6.24463 -8.73168 -63.5902 6.11363 
-9.96435 -63.6307 6.74171 -9.17615 -63.5671 6.0863 -11.2045 -63.2717 6.17749 
-11.0918 -63.7205 6.43306 -10.7172 -63.5995 6.06878 -11.7181 -63.0069 5.92626 
-12.7755 -63.6135 6.59514 -13.9056 -63.0459 5.88849 -13.8093 -63.3454 6.1528 
-14.207 -63.5033 5.94285 -7.95425 -63.3947 4.99808 -7.92144 -63.6431 5.37188 
-7.7099 -63.709 5.09847 -8.9486 -63.6236 5.73415 -8.19618 -63.54 5.1192 
-9.97113 -63.4562 5.2176 -9.66289 -63.6885 4.87689 -10.0117 -63.3957 4.98207 
-11.1275 -63.5107 5.52906 -10.236 -63.5201 5.10968 -12.277 -63.4555 5.3995 
-13.0288 -63.4743 5.43459 -13.7289 -63.6227 5.69022 -7.91344 -63.6598 4.61515 
-10.2505 -63.7734 4.76057 -16.996 -64.2305 17.694 -17.1462 -64.6848 18.4123 
-16.5038 -64.6584 17.7495 -17.483 -64.5594 17.9538 -13.8902 -64.3085 16.9755 
-13.8559 -64.6547 17.171 -13.6683 -64.6967 16.7845 -14.3015 -64.5806 17.1929 
-16.8554 -64.2454 17.1506 -16.6671 -64.7144 16.9339 -17.3904 -64.3847 17.285 
-14.0045 -64.614 16.6125 -17.2258 -64.7014 16.6972 -11.9892 -64.3015 14.9429 
-12.1562 -64.6963 15.3204 -11.7138 -64.7435 15.0084 -12.4183 -64.5547 14.8601 
-12.1318 -64.6605 14.675 -15.1052 -64.101 13.7679 -15.1553 -64.8601 14.3045 
-14.6136 -64.6306 14.0174 -16.0159 -64.1566 13.7699 -15.8121 -64.4727 14.2397 
-16.2964 -64.6953 14.0068 -11.1055 -64.3611 12.9412 -10.9192 -64.5364 13.1754 
-10.7799 -64.4336 12.8532 -12.1946 -63.8729 12.8537 -11.2907 -64.7283 12.8549 
-13.9866 -64.4857 13.5141 -13.338 -64.4867 12.7905 -15.2005 -63.7748 12.8958 
-15.7771 -64.0514 13.224 -16.4571 -64.6305 13.3146 -11.0056 -64.0745 12.3377 
-10.6288 -64.6682 11.9821 -11.7272 -64.2781 12.6506 -12.664 -64.6322 12.5989 
-13.0821 -63.9719 12.1647 -16.0128 -64.5736 12.5181 -15.7019 -64.4802 11.9642 
-10.0629 -64.4646 11.3339 -9.70718 -64.2939 11.0278 -11.8682 -64.6443 11.2132 
-12.0551 -64.3786 10.8764 -11.7546 -64.7657 10.9584 -12.1958 -64.701 10.9365 
-15.8762 -64.3912 11.3892 -16.2525 -64.2906 10.832 -10.103 -64.3281 10.5907 
-10.6928 -64.057 9.86557 -10.2621 -64.623 9.9902 -12.1428 -64.7176 10.6804 
-15.7261 -64.6431 10.2753 -16.0793 -64.4314 10.5479 -10.1031 -64.2163 9.07659 
-9.9931 -64.5432 9.48344 -9.47962 -64.512 9.00731 -10.8162 -63.8233 9.07921 
-15.158 -63.9532 8.95333 -15.8029 -64.2544 9.44581 -15.7396 -64.2936 8.89042 
-16.2989 -64.7131 9.13505 -9.24938 -64.2153 8.18982 -8.94486 -64.5076 8.50041 
-8.54582 -64.5612 7.82463 -10.1829 -63.8199 7.86966 -14.6773 -64.3993 7.99758 
-15.3365 -64.6931 8.40121 -15.9907 -64.7317 8.66922 -9.13942 -63.845 6.85977 
-8.27571 -64.4447 6.88551 -10.7222 -63.9216 6.78922 -11.5178 -64.4821 7.04503 
-12.0177 -64.3809 7.19051 -12.0995 -63.8917 7.0235 -13.197 -64.0949 6.78653 
-12.5075 -64.3476 6.96825 -13.7819 -64.1589 6.85492 -14.2997 -64.3412 7.20807 
-8.30698 -63.9454 5.92074 -7.78181 -64.6123 6.39036 -7.5266 -64.32 5.6081 
-9.94265 -63.6859 5.73974 -11.7891 -64.2432 6.77497 -13.5991 -64.4097 6.02132 
-14.0873 -63.8272 5.96556 -13.959 -64.9315 6.53058 -7.31341 -64.192 4.79857 
-8.77955 -63.7344 4.93495 -10.7696 -63.8406 5.02296 -11.6481 -64.0975 4.93835 
-12.4557 -64.5654 4.80949 -13.0402 -64.1685 5.34703 -7.27855 -64.1259 3.95153 
-6.74819 -64.5452 4.34379 -6.51766 -64.6661 3.85989 -8.21818 -63.8483 3.82613 
-9.12734 -64.0648 3.9709 -9.85512 -64.4451 4.3445 -9.47077 -64.5955 3.85852 
-11.0293 -64.6333 4.47759 -11.8889 -64.6503 4.62852 -17.9257 -64.3229 4.02019 
-17.8787 -64.6982 4.20469 -17.7531 -64.6784 3.76579 -18.1062 -64.6958 3.9826 
-7.0639 -64.719 3.43372 -7.74193 -64.6303 3.01699 -7.80687 -64.1493 3.16615 
-8.66998 -64.1414 3.03717 -9.29355 -64.6321 3.22995 -17.9627 -64.4052 3.73528 
-18.982 -64.7107 3.18016 -18.7341 -64.5005 2.78881 -19.0097 -64.3461 2.94544 
-19.4127 -64.601 3.00326 -8.36631 -64.6447 2.69734 -9.02183 -64.7319 2.62365 
-19.1566 -64.4843 2.66994 -17.0228 -65.267 19.8673 -17.0484 -65.8174 20.3508 
-16.6773 -65.4394 19.8474 -17.4607 -65.6287 20.0934 -16.7079 -64.9973 18.9915 
-16.3804 -65.5699 19.1371 -17.492 -65.3331 19.2803 -14.9921 -65.1072 17.8649 
-14.9623 -65.834 18.3551 -14.5262 -65.4339 18.0415 -15.8957 -65.1222 18.0144 
-15.8561 -65.6354 18.5266 -18.1234 -64.9001 17.8359 -18.0322 -65.3134 18.5081 
-18.8175 -65.2392 17.6715 -18.7962 -65.4686 18.2297 -19.3265 -65.8524 17.9285 
-14.1668 -65.1488 17.5898 -13.5181 -65.6022 16.9214 -15.0133 -64.9642 16.8172 
-15.7224 -65.4018 17.1384 -16.0343 -65.3272 17.4072 -16.3655 -65.2409 17.0731 
-18.0316 -64.9231 17.0612 -18.7038 -65.6205 16.8531 -19.2154 -65.6416 17.3872 
-12.112 -65.2234 15.8821 -11.7925 -65.5631 16.2529 -11.4877 -65.2448 15.6531 
-12.4906 -65.9365 16.0865 -13.6878 -65.4176 16.0563 -14.2014 -65.0445 16.0997 
-14.8167 -65.1701 15.9365 -15.8049 -65.4532 16.5431 -15.6102 -65.3223 16.0258 
-16.966 -65.4605 16.4559 -16.3677 -65.8532 15.9073 -17.886 -65.4796 16.3902 
-11.3991 -65.3438 15.0663 -12.8735 -65.0237 14.9953 -12.8977 -65.5045 15.4106 
-14.3234 -65.5495 15.4935 -13.3055 -65.5162 14.9199 -15.2605 -65.5624 15.4421 
-15.9838 -65.7213 15.4652 -11.8844 -65.5657 14.5095 -12.8865 -65.3241 14.5827 
-14.9669 -65.5974 14.4029 -14.4459 -65.2871 14.0302 -15.7854 -65.3179 14.4771 
-16.5237 -65.6616 14.0492 -10.8692 -64.7056 12.8027 -13.1277 -65.4665 13.2763 
-12.6039 -65.4788 12.8862 -13.0153 -65.156 12.9199 -13.7769 -65.6053 13.7203 
-17.1157 -65.5533 13.3065 -16.8824 -65.0279 12.8818 -17.4937 -65.6123 12.9825 
-11.3225 -65.0925 11.8937 -11.9144 -65.2564 12.573 -11.6225 -65.6758 12.1306 
-15.598 -65.1363 11.8303 -16.2819 -65.6837 12.2379 -17.1434 -65.6105 12.6111 
-9.91846 -64.8116 11.0001 -10.297 -65.3475 10.9831 -10.8723 -65.6019 11.5881 
-11.4468 -65.5033 11.1857 -11.8417 -65.3641 11.383 -12.194 -65.2405 10.7909 
-14.1114 -65.3031 11.0953 -13.6426 -65.493 11.0201 -14.0246 -65.7725 11.2924 
-14.9629 -65.6568 11.4889 -15.058 -65.0931 10.9961 -15.8799 -64.7055 10.7993 
-10.0242 -65.8904 10.4267 -9.52161 -65.5523 9.80423 -9.86926 -65.0308 9.85507 
-11.9468 -65.2654 10.6907 -13.9695 -65.57 10.5782 -15.1793 -65.6726 10.4233 
-16.3969 -64.9854 9.88167 -16.1306 -65.6002 10.381 -17.0022 -65.3327 9.99615 
-16.848 -65.5341 10.2723 -17.2482 -65.7896 10.0889 -8.97119 -64.9988 8.95759 
-9.01247 -65.8146 9.3934 -8.48561 -65.5318 8.80615 -16.9471 -65.655 9.54353 
-16.4574 -65.4955 8.80768 -8.02602 -65.1289 8.04289 -7.79931 -65.8333 8.41514 
-7.38278 -65.45 7.84027 -14.9145 -65.1402 7.82951 -15.3907 -65.4032 8.03411 
-15.9317 -65.4031 8.33614 -7.24994 -65.2193 7.2146 -6.98069 -65.5028 7.47154 
-6.57601 -65.5762 6.80599 -7.80483 -64.8591 7.08399 -11.974 -64.7359 7.00121 
-14.5 -65.2534 7.14257 -15.0808 -65.6389 7.56015 -7.016 -65.0471 6.12732 
-6.28734 -65.4532 5.86097 -13.7852 -65.3879 6.03665 -14.1195 -65.6112 6.4581 
-6.21079 -65.23 5.13112 -5.77139 -65.5731 5.32329 -5.49071 -65.5278 4.5851 
-6.80197 -64.7937 5.02317 -13.3266 -64.915 4.91101 -13.8054 -65.3559 5.43145 
-13.9664 -65.2611 4.67088 -14.3137 -65.6063 4.97531 -6.07907 -65.074 4.25405 
-5.3979 -65.6405 3.92627 -9.64375 -65.327 3.72115 -10.194 -65.2601 4.2029 
-10.8015 -65.2971 4.08992 -10.3553 -65.7526 3.93898 -11.4022 -65.3495 4.05362 
-12.0505 -65.166 4.26713 -12.8719 -65.1538 4.17938 -12.4104 -65.6516 3.84226 
-13.7159 -65.2097 4.03974 -14.4543 -65.4914 4.18162 -17.9472 -65.4827 4.27935 
-17.6347 -65.2891 3.99843 -18.4962 -65.5552 4.07973 -6.04345 -65.4473 3.61961 
-6.94865 -65.6256 3.32807 -7.72145 -65.212 3.16772 -8.05533 -64.9528 2.92809 
-8.28667 -65.2897 2.84056 -9.38998 -65.5157 2.79824 -11.0488 -65.9076 3.73997 
-13.169 -65.754 3.57778 -14.2172 -65.7232 3.56843 -18.236 -64.862 3.17649 
-17.4386 -65.4789 2.96187 -18.9349 -65.288 3.57127 -19.8518 -64.9949 2.60753 
-19.685 -65.2913 3.38708 -20.4032 -65.7482 3.175 -8.78432 -65.6138 2.43241 
-17.926 -65.2193 2.17918 -17.4837 -65.5241 2.00449 -18.8439 -64.9285 2.14838 
-19.8208 -65.1687 1.90203 -20.5555 -65.6242 2.27545 -17.9555 -65.6265 1.49781 
[...]
CELL_DATA 15692
SCALARS scalars float
LOOKUP_TABLE default
1005 1005 1005 1005 1005 1005 1005 1005 1005 
1005 1005 1005 1005 1005 1005 1005 1005 1005 
1005 1005 1005 1005 1005 1005 1005 1005 1005 
1005 1005 1005 1005 1005 1005 1005 1005 1005 
1005 1005 1005 1005 1005 1005 1005 1005 1005 
1005 1005 1005 1005 1005 1005 1005 1005 1005 
1005 1005 1005 1005 1005 1005 1005 1005 1005 
1005 1005 1005 1005 1005 1005 1005 1005 1005 
1005 1005 1005 1005 1005 1005 1005 1005 1005 
1005 1005 1005 1005 1005 1005 1005 1005 1005 
1005 1005 1005 1005 1005 1005 1005 1005 1005 
1005 1005 1005 1005 1005 1005 1005 1005 1005 
1005 1005 1005 1005 1005 1005 1005 1005 1005 
1005 1005 1005 1005 1005 1005 1005 1005 1005 
1005 1005 1005 1005 1005 1005 1005 1005 1005 
1005 1005 1005 1005 1005 1005 1005 1005 1005 
1005 1005 1005 1005 1005 1005 1005 1005 1005 
1005 1005 1005 1005 1005 1005 1005 1005 1005 
1005 1005 1005 1005 1005 1005 1005 1005 1005 
1005 1005 1005 1005 1005 1005 1005 1005 1005 
1005 1005 1005 1005 1005 1005 1005 1005 1005 
1005 1005 1005 1005 1005 1005 1005 1005 1005 
1005 1005 1005 1005 1005 1005 1005 1005 1005 
1005 1005 1005 1005 1005 1005 1005 1005 1005 
1005 1005 1005 1005 1005 1005 1005 1005 1005 
1005 1005 1005 1005 1005 1005 1005 1005 1005 
1005 1005 1005 1005 1005 1005 1005 1005 1005 
1005 1005 1005 1005 1005 1005 1005 1005 1005 
1005 1005 1005 1005 1005 1005 1005 1005 1005 
1005 1005 1005 1005 1005 1005 1005 1005 1005 
1005 1005 1005 1005 1005 1005 1005 1005 1005 
1005 1005 1005 1005 1005 1005 1005 1005 1005 
1005 1005 1005 1005 1005 1005 1005 1005 1005 
1005 1005 1005 1005 1005 1005 1005 1005 1005 
1005 1005 1005 1005 1005 1005 1005 1005 1005 
1005 1005 1005 1005 1005 1005 1005 1005 1005 
1005 1005 1005 1005 1005 1005 1005 1005 1005 
1005 1005 1005 1005 1005 1005 1005 1005 1005 
1005 1005 1005 1005 1005 1005 1005 1005 1005 
1005 1005 1005 1005 1005 1005 1005 1005 1005 
1005 1005 1005 1005 1005 1005 1005 1005 1005 
1005 1005 1005 1005 1005 1005 1005 1005 1005 
1005 1005 1005 1005 1005 1005 1005 1005 1005 
1005 1005 1005 1005 1005 1005 1005 1005 1005 
1005 1005 1005 1005 1005 1005 1005 1005 1005 
1005 1005 1005 1005 1005 1005 1005 1005 1005 
1005 1005 1005 1005 1005 1005 1005 1005 1005 
1005 1005 1005 1005 1005 1005 1005 1005 1005 
1005 1005 1005 1005 1005 1005 1005 1005 1005 
1005 1005 1005 1005 1005 1005 1005 1005 1005 
1005 1005 1005 1005 1005 1005 1005 1005 1005 
1005 1005 1005 1005 1005 1005 1005 1005 1005 
1005 1005 1005 1005 1005 1005 1005 1005 1005 
1005 1005 1005 1005 1005 1005 1005 1005 1005 
1005 1005 1005 1005 1005 1005 1005 1005 1005 
1005 1005 1005 1005 1005 1005 1005 1005 1005 
1005 1005 1005 1005 1005 1005 1005 1005 1005 
1005 1005 1005 1005 1005 1005 1005 1005 1005 
1005 1005 1005 1005 1005 1005 1005 1005 1005 
1005 1005 1005 1005 1005 1005 1005 1005 1005 
1005 1005 1005 1005 1005 1005 1005 1005 1005 
1005 1005 1005 1005 1005 1005 1005 1005 1005 
1005 1005 1005 1005 1005 1005 1005 1005 1005 
1005 1005 1005 1005 1005 1005 1005 1005 1005 
1005 1005 1005 1005 1005 1005 1005 1005 1005 
1005 1005 1005 1005 1005 1005 1005 1005 1005 
1005 1005 1005 1005 1005 1005 1005 1005 1005 
1005 1005 1005 1005 1005 1005 1005 1005 1005 
1005 1005 1005 1005 1005 1005 1005 1005 1005 
1005 1005 1005 1005 1005 1005 1005 1005 1005 
1005 1005 1005 1005 1005 1005 1005 1005 1005 
1005 1005 1005 1005 1005 1005 1005 1005 1005 
1005 1005 1005 1005 1005 1005 1005 1005 1005 
1005 1005 1005 1005 1005 1005 1005 1005 1005 
1005 1005 1005 1005 1005 1005 1005 1005 1005 
1005 1005 1005 1005 1005 1005 1005 1005 1005 
1005 1005 1005 1005 1005 1005 1005 1005 1005 
1005 1005 1005 1005 1005 1005 1005 1005 1005 
1005 1005 1005 1005 1005 1005 1005 1005 1005 
1005 1005 1005 1005 1005 1005 1005 1005 1005 
1005 1005 1005 1005 1005 1005 1005 1005 1005 
1005 1005 1005 1005 1005 1005 1005 1005 1005 
1005 1005 1005 1005 1005 1005 1005 1005 1005 
1005 1005 1005 1005 1005 1005 1005 1005 1005 
1005 1005 1005 1005 1005 1005 1005 1005 1005 
1005 1005 1005 1005 1005 1005 1005 1005 1005 
1005 1005 1005 1005 1005 1005 1005 1005 1005 
1005 1005 1005 1005 1005 1005 1005 1005 1005 
1005 1005 1005 1005 1005 1005 1005 1005 1005 
1005 1005 1005 1005 1005 1005 1005 1005 1005 
1005 1005 1005 1005 1005 1005 1005 1005 1005 
1005 1005 1005 1005 1005 1005 1005 1005 1005 
1005 1005 1005 1005 1005 1005 1005 1005 1005 
1005 1005 1005 1005 1005 1005 1005 1005 1005 
1005 1005 1005 1005 1005 1005 1005 1005 1005 
1005 1005 1005 1005 1005 1005 1005 1005 1005 
1005 1005 1005 1005 1005 1005 1005 1005 1005 
1005 1005 1005 1005 1005 1005 1005 1005 1005 
1005 1005 1005 1005 1005 1005 1005 1005 1005 
1005 1005 1005 1005 1005 1005 1005 1005 1005 
1005 1005 1005 1005 1005 1005 1005 1005 1005 
1005 1005 1005 1005 1005 1005 1005 1005 1005 
1005 1005 1005 1005 1005 1005 1005 1005 1005 
1005 1005 1005 1005 1005 1005 1005 1005 1005 
1005 1005 1005 1005 1005 1005 1005 1005 1005 
1005 1005 1005 1005 1005 1005 1005 1005 1005 
1005 1005 1005 1005 1005 1005 1005 1005 1005 
1005 1005 1005 1005 1005 1005 1005 1005 1005 
1005 1005 1005 1005 1005 1005 1005 1005 1005 
1005 1005 1005 1005 1005 1005 1005 1005 1005 
1005 1005 1005 1005 1005 1005 1005 1005 1005 
1005 1005 1005 1005 1005 1005 1005 1005 1005 
1005 1005 1005 1005 1005 1005 1005 1005 1005 
1005 1005 1005 1005 1005 1005 1005 1005 1005 
1005 1005 1005 1005 1005 1005 1005 1005 1005 
1005 1005 1005 1005 1005 1005 1005 1005 1005 
1005 1005 1005 1005 1005 1005 1005 1005 1005 
1005 1005 1005 1005 1005 1005 1005 1005 1005 
1005 1005 1005 1005 1005 1005 1005 1005 1005 
1005 1005 1005 1005 1005 1005 1005 1005 1005 
1005 1005 1005 1005 1005 1005 1005 1005 1005 
1005 1005 1005 1005 1005 1005 1005 1005 1005 
1005 1005 1005 1005 1005 1005 1005 1005 1005 
1005 1005 1005 1005 1005 1005 1005 1005 1005 
1005 1005 1005 1005 1005 1005 1005 1005 1005 
1005 1005 1005 1005 1005 1005 1005 1005 1005 
1005 1005 1005 1005 1005 1005 1005 1005 1005 
1005 1005 1005 1005 1005 1005 1005 1005 1005 
1005 1005 1005 1005 1005 1005 1005 1005 1005 
1005 1005 1005 1005 1005 1005 1005 1005 1005 
1005 1005 1005 1005 1005 1005 1005 1005 1005 
1005 1005 1005 1005 1005 1005 1005 1005 1005 
1005 1005 1005 1005 1005 1005 1005 1005 1005 
1005 1005 1005 1005 1005 1005 1005 1005 1005 
1005 1005 1005 1005 1005 1005 1005 1005 1005 
1005 1005 1005 1005 1005 1005 1005 1005 1005 
1005 1005 1005 1005 1005 1005 1005 1005 1005 
1005 1005 1005 1005 1005 1005 1005 1005 1005 
1005 1005 1005 1005 1005 1005 1005 1005 1005 
1005 1005 1005 1005 1005 1005 1005 1005 1005 
1005 1005 1005 1005 1005 1005 1005 1005 1005 
1005 1005 1005 1005 1005 1005 1005 1005 1005 
1005 1005 1005 1005 1005 1005 1005 1005 1005 
1005 1005 1005 1005 1005 1005 1005 1005 1005 
1005 1005 1005 1005 1005 1005 1005 1005 1005 
1005 1005 1005 1005 1005 1005 1005 1005 1005 
1005 1005 1005 1005 1005 1005 1005 1005 1005 
1005 1005 1005 1005 1005 1005 1005 1005 1005 
1005 1005 1005 1005 1005 1005 1005 1005 1005 
1005 1005 1005 1005 1005 1005 1005 1005 1005 
1005 1005 1005 1005 1005 1005 1005 1005 1005 
1005 1005 1005 1005 1005 1005 1005 1005 1005 
1005 1005 1005 1005 1005 1005 1005 1005 1005 
1005 1005 1005 1005 1005 1005 1005 1005 1005 
1005 1005 1005 1005 1005 1005 1005 1005 1005 
1005 1005 1005 1005 1005 1005 1005 1005 1005 
1005 1005 1005 1005 1005 1005 1005 1005 1005 
1005 1005 1005 1005 1005 1005 1005 1005 1005 
1005 1005 1005 1005 1005 1005 1005 1005 1005 
1005 1005 1005 1005 1005 1005 1005 1005 1005 
1005 1005 1005 1005 1005 1005 1005 1005 1005 
1005 1005 1005 1005 1005 1005 1005 1005 1005 
1005 1005 1005 1005 1005 1005 1005 1005 1005 
1005 1005 1005 1005 1005 1005 1005 1005 1005 
1005 1005 1005 1005 1005 1005 1005 1005 1005 
1005 1005 1005 1005 1005 1005 1005 1005 1005 
1005 1005 1005 1005 1005 1005 1005 1005 1005 
1005 1005 1005 1005 1005 1005 1005 1005 1005 
1005 1005 1005 1005 1005 1005 1005 1005 1005 
1005 1005 1005 1005 1005 1005 1005 1005 1005 
1005 1005 1005 1005 1005 1005 1005 1005 1005 
1005 1005 1005 1005 1005 1005 1005 1005 1005 
1005 1005 1005 1005 1005 1005 1005 1005 1005 
1005 1005 1005 1005 1005 1005 1005 1005 1005 
1005 1005 1005 1005 1005 1005 1005 1005 1005 
1005 1005 1005 1005 1005 1005 1005 1005 1005 
1005 1005 1005 1005 1005 1005 1005 1005 1005 
1005 1005 1005 1005 1005 1005 1005 1005 1005 
1005 1005 1005 1005 1005 1005 1005 1005 1005 
1005 1005 1005 1005 1005 1005 1005 1005 1005 
1005 1005 1005 1005 1005 1005 1005 1005 1005 
1005 1005 1005 1005 1005 1005 1005 1005 1005 
1005 1005 1005 1005 1005 1005 1005 1005 1005 
1005 1005 1005 1005 1005 1005 1005 1005 1005 
1005 1005 1005 1005 1005 1005 1005 1005 1005 
1005 1005 1005 1005 1005 1005 1005 1005 1005 
1005 1005 1005 1005 1005 1005 1005 1005 1005 
1005 1005 1005 1005 1005 1005 1005 1005 1005 
1005 1005 1005 1005 1005 1005 1005 1005 1005 
1005 1005 1005 1005 1005 1005 1005 1005 1005 
1005 1005 1005 1005 1005 1005 1005 1005 1005 
1005 1005 1005 1005 1005 1005 1005 1005 1005 
1005 1005 1005 1005 1005 1005 1005 1005 1005 
1005 1005 1005 1005 1005 1005 1005 1005 1005 
1005 1005 1005 1005 1005 1005 1005 1005 1005 
1005 1005 1005 1005 1005 1005 1005 1005 1005 
1005 1005 1005 1005 1005 1005 1005 1005 1005 
1005 1005 1005 1005 1005 1005 1005 1005 1005 
1005 1005 1005 1005 1005 1005 1005 1005 1005 
1005 1005 1005 1005 1005 1005 1005 1005 1005 
1005 1005 1005 1005 1005 1005 1005 1005 1005 
1005 1005 1005 1005 1005 1005 1005 1005 1005 
1005 1005 1005 1005 1005 1005 1005 1005 1005 
1005 1005 1005 1005 1005 1005 1005 1005 1005 
1005 1005 1005 1005 1005 1005 1005 1005 1005 
1005 1005 1005 1005 1005 1005 1005 1005 1005 
1005 1005 1005 1005 1005 1005 1005 1005 1005 
1005 1005 1005 1005 1005 1005 1005 1005 1005 
1005 1005 1005 1005 1005 1005 1005 1005 1005 
1005 1005 1005 1005 1005 1005 1005 1005 1005 
1005 1005 1005 1005 1005 1005 1005 1005 1005 
1005 1005 1005 1005 1005 1005 1005 1005 1005 
1005 1005 1005 1005 1005 1005 1005 1005 1005 
1005 1005 1005 1005 1005 1005 1005 1005 1005 
1005 1005 1005 1005 1005 1005 1005 1005 1005 
1005 1005 1005 1005 1005 1005 1005 1005 1005 
1005 1005 1005 1005 1005 1005 1005 1005 1005 
1005 1005 1005 1005 1005 1005 1005 1005 1005 
1005 1005 1005 1005 1005 1005 1005 1005 1005 
1005 1005 1005 1005 1005 1005 1005 1005 1005 
1005 1005 1005 1005 1005 1005 1005 1005 1005 
1005 1005 1005 1005 1005 1005 1005 1005 1005 
1005 1005 1005 1005 1005 1005 1005 1005 1005 
1005 1005 1005 1005 1005 1005 1005 1005 1005 
1005 1005 1005 1005 1005 1005 1005 1005 1005 
1005 1005 1005 1005 1005 1005 1005 1005 1005 
1005 1005 1005 1005 1005 1005 1005 1005 1005 
1005 1005 1005 1005 1005 1005 1005 1005 1005 
1005 1005 1005 1005 1005 1005 1005 1005 1005 
1005 1005 1005 1005 1005 1005 1005 1005 1005 
1005 1005 1005 1005 1005 1005 1005 1005 1005 
1005 1005 1005 1005 1005 1005 1005 1005 1005 
1005 1005 1005 1005 1005 1005 1005 1005 1005 
1005 1005 1005 1005 1005 1005 1005 1005 1005 
1005 1005 1005 1005 1005 1005 1005 1005 1005 
1005 1005 1005 1005 1005 1005 1005 1005 1005 
1005 1005 1005 1005 1005 1005 1005 1005 1005 
1005 1005 1005 1005 1005 1005 1005 1005 1005 
1005 1005 1005 1005 1005 1005 1005 1005 1005 
1005 1005 1005 1005 1005 1005 1005 1005 1005 
1005 1005 1005 1005 1005 1005 1005 1005 1005 
1005 1005 1005 1005 1005 1005 1005 1005 1005 
1005 1005 1005 1005 1005 1005 1005 1005 1005 
1005 1005 1005 1005 1005 1005 1005 1005 1005 
1005 1005 1005 1005 1005 1005 1005 1005 1005 
1005 1005 1005 1005 1005 1005 1005 1005 1005 
1005 1005 1005 1005 1005 1005 1005 1005 1005 
1005 1005 1005 1005 1005 1005 1005 1005 1005 
1005 1005 1005 1005 1005 1005 1005 1005 1005 
1005 1005 1005 1005 1005 1005 1005 1005 1005 
1005 1005 1005 1005 1005 1005 1005 1005 1005 
1005 1005 1005 1005 1005 1005 1005 1005 1005 
1005 1005 1005 1005 1005 1005 1005 1005 1005 
1005 1005 1005 1005 1005 1005 1005 1005 1005 
1005 1005 1005 1005 1005 1005 1005 1005 1005 
1005 1005 1005 1005 1005 1005 1005 1005 1005 
1005 1005 1005 1005 1005 1005 1005 1005 1005 
1005 1005 1005 1005 1005 1005 1005 1005 1005 
1005 1005 1005 1005 1005 1005 1005 1005 1005 
1005 1005 1005 1005 1005 1005 1005 1005 1005 
1005 1005 1005 1005 1005 1005 1005 1005 1005 
1005 1005 1005 1005 1005 1005 1005 1005 1005 
1005 1005 1005 1005 1005 1005 1005 1005 1005 
1005 1005 1005 1005 1005 1005 1005 1005 1005 
1005 1005 1005 1005 1005 1005 1005 1005 1005 
1005 1005 1005 1005 1005 1005 1005 1005 1005 
1005 1005 1005 1005 1005 1005 1005 1005 1005 
1005 1005 1005 1005 1005 1005 1005 1005 1005 
1005 1005 1005 1005 1005 1005 1005 1005 1005 
1005 1005 1005 1005 1005 1005 1005 1005 1005 
1005 1005 1005 1005 1005 1005 1005 1005 1005 
1005 1005 1005 1005 1005 1005 1005 1005 1005 
1005 1005 1005 1005 1005 1005 1005 1005 1005 
1005 1005 1005 1005 1005 1005 1005 1005 1005 
1005 1005 1005 1005 1005 1005 1005 1005 1005 
1005 1005 1005 1005 1005 1005 1005 1005 1005 
1005 1005 1005 1005 1005 1005 1005 1005 1005 
1005 1005 1005 1005 1005 1005 1005 1005 1005 
1005 1005 1005 1005 1005 1005 1005 1005 1005 
1005 1005 1005 1005 1005 1005 1005 1005 1005 
1005 1005 1005 1005 1005 1005 1005 1005 1005 
1005 1005 1005 1005 1005 1005 1005 1005 1005 
1005 1005 1005 1005 1005 1005 1005 1005 1005 
1005 1005 1005 1005 1005 1005 1005 1005 1005 
1005 1005 1005 1005 1005 1005 1005 1005 1005 
1005 1005 1005 1005 1005 1005 1005 1005 1005 
1005 1005 1005 1005 1005 1005 1005 1005 1005 
1005 1005 1005 1005 1005 1005 1005 1005 1005 
1005 1005 1005 1005 1005 1005 1005 1005 1005 
1005 1005 1005 1005 1005 1005 1005 1005 1005 
1005 1005 1005 1005 1005 1005 1005 1005 1005 
1005 1005 1005 1005 1005 1005 1005 1005 1005 
1005 1005 1005 1005 1005 1005 1005 1005 1005 
1005 1005 1005 1005 1005 1005 1005 1005 1005 
1005 1005 1005 1005 1005 1005 1005 1005 1005 
1005 1005 1005 1005 1005 1005 1005 1005 1005 
1005 1005 1005 1005 1005 1005 1005 1005 1005 
1005 1005 1005 1005 1005 1005 1005 1005 1005 
1005 1005 1005 1005 1005 1005 1005 1005 1005 
1005 1005 1005 1005 1005 1005 1005 1005 1005 
1005 1005 1005 1005 1005 1005 1005 1005 1005 
1005 1005 1005 1005 1005 1005 1005 1005 1005 
1005 1005 1005 1005 1005 1005 1005 1005 1005 
1005 1005 1005 1005 1005 1005 1005 1005 1005 
1005 1005 1005 1005 1005 1005 1005 1005 1005 
1005 1005 1005 1005 1005 1005 1005 1005 1005 
1005 1005 1005 1005 1005 1005 1005 1005 1005 
1005 1005 1005 1005 1005 1005 1005 1005 1005 
1005 1005 1005 1005 1005 1005 1005 1005 1005 
1005 1005 1005 1005 1005 1005 1005 1005 1005 
1005 1005 1005 1005 1005 1005 1005 1005 1005 
1005 1005 1005 1005 1005 1005 1005 1005 1005 
1005 1005 1005 1005 1005 1005 1005 1005 1005 
1005 1005 1005 1005 1005 1005 1005 1005 1005 
1005 1005 1005 1005 1005 1005 1005 1005 1005 
1005 1005 1005 1005 1005 1005 1005 1005 1005 
1005 1005 1005 1005 1005 1005 1005 1005 1005 
1005 1005 1005 1005 1005 1005 1005 1005 1005 
1005 1005 1005 1005 1005 1005 1005 1005 1005 
1005 1005 1005 1005 1005 1005 1005 1005 1005 
1005 1005 1005 1005 1005 1005 1005 1005 1005 
1005 1005 1005 1005 1005 1005 1005 1005 1005 
1005 1005 1005 1005 1005 1005 1005 1005 1005 
1005 1005 1005 1005 1005 1005 1005 1005 1005 
1005 1005 1005 1005 1005 1005 1005 1005 1005 
1005 1005 1005 1005 1005 1005 1005 1005 1005 
1005 1005 1005 1005 1005 1005 1005 1005 1005 
1005 1005 1005 1005 1005 1005 1005 1005 1005 
1005 1005 1005 1005 1005 1005 1005 1005 1005 
1005 1005 1005 1005 1005 1005 1005 1005 1005 
1005 1005 1005 1005 1005 1005 1005 1005 1005 
1005 1005 1005 1005 1005 1005 1005 1005 1005 
1005 1005 1005 1005 1005 1005 1005 1005 1005 
1005 1005 1005 1005 1005 1005 1005 1005 1005 
1005 1005 1005 1005 1005 1005 1005 1005 1005 
1005 1005 1005 1005 1005 1005 1005 1005 1005 
1005 1005 1005 1005 1005 1005 1005 1005 1005 
1005 1005 1005 1005 1005 1005 1005 1005 1005 
1005 1005 1005 1005 1005 1005 1005 1005 1005 
1005 1005 1005 1005 1005 1005 1005 1005 1005 
1005 1005 1005 1005 1005 1005 1005 1005 1005 
1005 1005 1005 1005 1005 1005 1005 1005 1005 
1005 1005 1005 1005 1005 1005 1005 1005 1005 
1005 1005 1005 1005 1005 1005 1005 1005 1005 
1005 1005 1005 1005 1005 1005 1005 1005 1005 
1005 1005 1005 1005 1005 1005 1005 1005 1005 
1005 1005 1005 1005 1005 1005 1005 1005 1005 
1005 1005 1005 1005 1005 1005 1005 1005 1005 
1005 1005 1005 1005 1005 1005 1005 1005 1005 
1005 1005 1005 1005 1005 1005 1005 1005 1005 
1005 1005 1005 1005 1005 1005 1005 1005 1005 
1005 1005 1005 1005 1005 1005 1005 1005 1005 
1005 1005 1005 1005 1005 1005 1005 1005 1005 
1005 1005 1005 1005 1005 1005 1005 1005 1005 
1005 1005 1005 1005 1005 1005 1005 1005 1005 
1005 1005 1005 1005 1005 1005 1005 1005 1005 
1005 1005 1005 1005 1005 1005 1005 1005 1005 
1005 1005 1005 1005 1005 1005 1005 1005 1005 
1005 1005 1005 1005 1005 1005 1005 1005 1005 
1005 1005 1005 1005 1005 1005 1005 1005 1005 
1005 1005 1005 1005 1005 1005 1005 1005 1005 
1005 1005 1005 1005 1005 1005 1005 1005 1005 
1005 1005 1005 1005 1005 1005 1005 1005 1005 
1005 1005 1005 1005 1005 1005 1005 1005 1005 
1005 1005 1005 1005 1005 1005 1005 1005 1005 
1005 1005 1005 1005 1005 1005 1005 1005 1005 
1005 1005 1005 1005 1005 1005 1005 1005 1005 
1005 1005 1005 1005 1005 1005 1005 1005 1005 
1005 1005 1005 1005 1005 1005 1005 1005 1005 
1005 1005 1005 1005 1005 1005 1005 1005 1005 
1005 1005 1005 1005 1005 1005 1005 1005 1005 
1005 1005 1005 1005 1005 1005 1005 1005 1005 
1005 1005 1005 1005 1005 1005 1005 1005 1005 
1005 1005 1005 1005 1005 1005 1005 1005 1005 
1005 1005 1005 1005 1005 1005 1005 1005 1005 
1005 1005 1005 1005 1005 1005 1005 1005 1005 
1005 1005 1005 1005 1005 1005 1005 1005 1005 
1005 1005 1005 1005 1005 1005 1005 1005 1005 
1005 1005 1005 1005 1005 1005 1005 1005 1005 
1005 1005 1005 1005 1005 1005 1005 1005 1005 
1005 1005 1005 1005 1005 1005 1005 1005 1005 
1005 1005 1005 1005 1005 1005 1005 1005 1005 
1005 1005 1005 1005 1005 1005 1005 1005 1005 
1005 1005 1005 1005 1005 1005 1005 1005 1005 
1005 1005 1005 1005 1005 1005 1005 1005 1005 
1005 1005 1005 1005 1005 1005 1005 1005 1005 
1005 1005 1005 1005 1005 1005 1005 1005 1005 
1005 1005 1005 1005 1005 1005 1005 1005 1005 
1005 1005 1005 1005 1005 1005 1005 1005 1005 
1005 1005 1005 1005 1005 1005 1005 1005 1005 
1005 1005 1005 1005 1005 1005 1005 1005 1005 
1005 1005 1005 1005 1005 1005 1005 1005 1005 
1005 1005 1005 1005 1005 1005 1005 1005 1005 
1005 1005 1005 1005 1005 1005 1005 1005 1005 
1005 1005 1005 1005 1005 1005 1005 1005 1005 
1005 1005 1005 1005 1005 1005 1005 1005 1005 
1005 1005 1005 1005 1005 1005 1005 1005 1005 
1005 1005 1005 1005 1005 1005 1005 1005 1005 
1005 1005 1005 1005 1005 1005 1005 1005 1005 
1005 1005 1005 1005 1005 1005 1005 1005 1005 
1005 1005 1005 1005 1005 1005 1005 1005 1005 
1005 1005 1005 1005 1005 1005 1005 1005 1005 
1005 1005 1005 1005 1005 1005 1005 1005 1005 
1005 1005 1005 1005 1005 1005 1005 1005 1005 
1005 1005 1005 1005 1005 1005 1005 1005 1005 
1005 1005 1005 1005 1005 1005 1005 1005 1005 
1005 1005 1005 1005 1005 1005 1005 1005 1005 
1005 1005 1005 1005 1005 1005 1005 1005 1005 
1005 1005 1005 1005 1005 1005 1005 1005 1005 
1005 1005 1005 1005 1005 1005 1005 1005 1005 
1005 1005 1005 1005 1005 1005 1005 1005 1005 
1005 1005 1005 1005 1005 1005 1005 1005 1005 
1005 1005 1005 1005 1005 1005 1005 1005 1005 
1005 1005 1005 1005 1005 1005 1005 1005 1005 
1005 1005 1005 1005 1005 1005 1005 1005 1005 
1005 1005 1005 1005 1005 1005 1005 1005 1005 
1005 1005 1005 1005 1005 1005 1005 1005 1005 
1005 1005 1005 1005 1005 1005 1005 1005 1005 
1005 1005 1005 1005 1005 1005 1005 1005 1005 
1005 1005 1005 1005 1005 1005 1005 1005 1005 
1005 1005 1005 1005 1005 1005 1005 1005 1005 
1005 1005 1005 1005 1005 1005 1005 1005 1005 
1005 1005 1005 1005 1005 1005 1005 1005 1005 
1005 1005 1005 1005 1005 1005 1005 1005 1005 
1005 1005 1005 1005 1005 1005 1005 1005 1005 
1005 1005 1005 1005 1005 1005 1005 1005 1005 
1005 1005 1005 1005 1005 1005 1005 1005 1005 
1005 1005 1005 1005 1005 1005 1005 1005 1005 
1005 1005 1005 1005 1005 1005 1005 1005 1005 
1005 1005 1005 1005 1005 1005 1005 1005 1005 
1005 1005 1005 1005 1005 1005 1005 1005 1005 
1005 1005 1005 1005 1005 1005 1005 1005 1005 
1005 1005 1005 1005 1005 1005 1005 1005 1005 