# vtk DataFile Version 4.0
vtk output
ASCII
DATASET POLYDATA
POINTS 7492 float
-44.2875 25.8346 8.83744 -43.6901 25.2506 9.29203 -43.5013 25.5261 8.66688 
-45.2554 25.9471 8.84651 -44.6513 25.3456 9.48508 -46.285 25.9449 8.82834 
-45.7251 25.5391 9.50833 -47.2148 25.8389 8.70311 -46.8946 25.3406 9.51116 
-47.5709 25.3832 9.08914 -44.1044 25.8368 8.04485 -43.6081 25.4663 7.89133 
-44.9857 26.05 7.9813 -46.0066 26.0878 7.94542 -47.0231 26.0486 7.91724 
-47.8499 25.5995 8.55797 -47.8648 25.8271 7.89787 -48.3455 25.4594 8.07995 
-44.1167 25.5783 7.38353 -44.4811 25.4817 6.9419 -44.7566 25.7912 7.23255 
-45.6984 25.8715 7.08873 -46.732 25.889 7.05935 -47.6885 25.7959 7.0842 
-48.4373 25.4902 7.29157 -43.2842 25.755 5.94418 -43.0493 25.3596 6.18871 
-42.8369 25.5314 6.03368 -44.1665 25.8064 5.75161 -43.6656 25.4189 6.29053 
-45.1568 25.393 6.54946 -44.3814 25.4193 6.15548 -46.2641 25.4435 6.42138 
-47.2908 25.4594 6.42801 -48.1275 25.3959 6.60355 -43.0961 25.4781 5.64689 
-43.3345 25.2417 4.73863 -43.9207 25.9426 5.00392 -44.8556 25.5394 5.59014 
-45.0769 25.8604 4.84315 -45.4299 25.3825 5.14108 -44.0748 25.8591 3.93901 
-43.674 25.2663 3.85831 -44.9831 26.1059 3.90942 -45.896 25.5212 4.53383 
-46.102 25.8779 3.7836 -46.5147 25.4105 4.06639 -44.2188 25.3838 3.37057 
-44.711 25.3895 2.9411 -44.7733 25.9153 3.16396 -45.7332 25.9709 3.01315 
-46.9243 25.6005 3.45145 -46.7325 25.7835 2.92171 -47.3492 25.4719 3.02659 
-45.2152 25.6639 2.684 -46.0996 25.2609 2.33654 -47.2618 25.2336 2.55582 
-45.2956 24.9383 9.9745 -44.928 24.4255 10.3044 -44.5246 24.6649 9.90175 
-46.2716 25.0152 10.0021 -45.9429 24.391 10.4716 -46.9358 24.9161 9.98935 
-46.9541 24.3965 10.2904 -47.5064 24.5177 9.97884 -43.0331 25.0139 8.98964 
-43.0189 24.4978 9.49646 -42.5556 24.3592 8.92577 -43.8355 24.6363 9.71294 
-48.3253 25.09 8.82842 -48.0094 24.6456 9.50836 -49.2044 24.7932 8.72325 
-48.9207 24.3908 9.29065 -49.5425 24.3241 9.08207 -43.0148 25.0095 8.08501 
-42.5088 24.3016 7.99714 -49.0409 25.1347 7.8502 -50.0269 24.3081 8.63048 
-50.0717 24.8221 7.86495 -50.56 24.3453 8.07094 -42.9774 24.7059 7.03464 
-42.6853 24.179 7.20701 -43.9499 25.1894 6.84804 -49.0158 25.1189 6.67299 
-50.0367 25.0031 6.93492 -50.8601 24.5579 7.54095 -50.8838 24.7872 6.9135 
-51.3683 24.4205 7.06602 -42.8975 25.2382 6.02204 -42.9457 24.4408 6.63878 
-43.2314 24.5652 6.00626 -45.1113 25.1716 5.87416 -46.019 25.0403 5.79135 
-47.0215 25.0541 5.78701 -48.1701 25.0742 5.91578 -49.2096 24.9741 5.77258 
-49.8939 24.9773 6.07772 -50.7187 24.7974 5.92938 -51.4706 24.465 6.29901 
-42.9263 24.4221 5.22189 -42.8242 24.4286 4.92113 -42.9465 24.6902 5.0745 
-46.142 25.0892 4.88886 -47.0101 24.9095 4.9078 -47.9861 24.915 4.92978 
-48.8725 24.9343 5.07306 -49.8423 24.8036 4.99167 -50.6476 24.5346 5.10497 
-51.2292 24.4049 5.54101 -42.9938 24.6021 4.66152 -43.4193 24.6243 4.1675 
-47.1759 25.1455 3.84598 -47.8691 24.9309 4.04654 -48.8182 24.801 3.94732 
-49.6082 24.5226 4.05532 -50.2083 24.4121 4.51407 -43.9426 24.7296 3.62905 
-44.8362 24.4149 3.38855 -45.2081 25.0022 2.6773 -45.4864 24.3003 2.86816 
-47.9586 25.0039 3.10198 -48.6249 24.5688 3.02802 -49.1878 24.4131 3.44721 
-45.745 24.5782 2.20319 -45.9717 24.7748 1.86393 -46.2308 24.6336 1.89763 
-46.8618 24.2 2.22913 -48.098 24.3765 2.54096 -45.9765 24.5065 1.78147 
-44.0242 23.8143 10.8871 -43.9375 23.2519 11.2641 -43.4038 23.4727 10.8374 
-45.1046 24.0069 10.8689 -44.8658 23.25 11.5284 -46.1415 23.8524 10.9015 
-45.8089 23.5047 11.2544 -46.5358 23.1647 10.999 -43.2513 23.9388 10.1879 
-42.8965 23.1413 10.4212 -42.574 23.6567 9.73648 -44.1655 24.2155 10.2568 
-46.8607 23.703 10.6305 -48.1935 23.9372 9.93242 -47.7299 23.4939 10.453 
-48.4875 23.1383 10.158 -42.4864 23.4103 9.05936 -48.9697 23.5558 9.59555 
-49.971 23.9855 9.02614 -49.8747 23.5462 9.31133 -50.4875 23.4921 8.98801 
-42.5937 23.5745 8.06205 -51.3061 24.0602 7.80981 -50.8303 23.7484 8.50415 
-52.2463 23.8771 7.83842 -51.7135 23.5033 8.49925 -53.1918 23.8208 7.71923 
-52.8759 23.3136 8.50014 -53.5726 23.3574 8.06189 -42.8473 23.5905 7.37584 
-42.9899 24.0209 6.78774 -43.2947 23.4743 6.9081 -52.0477 24.1186 6.86484 
-53.0262 24.026 6.95542 -54.0717 23.3598 7.58276 -53.8981 23.8344 6.9147 
-54.5456 23.391 6.95348 -43.6752 23.389 6.23591 -52.0271 24.108 5.67179 
-53.0254 24.0074 5.93736 -53.9051 23.8934 5.98246 -54.5851 23.5379 6.19972 
-43.2852 24.1442 4.85978 -43.7893 23.5742 5.45717 -44.1864 23.673 4.66585 
-44.4366 23.2935 5.07968 -51.0895 24.12 4.72918 -52.184 23.9724 4.79021 
-52.8895 23.968 5.08172 -53.7326 23.8145 4.89651 -54.5327 23.5228 5.2471 
-44.0325 24.132 4.04116 -44.8767 23.433 4.52105 -44.7662 23.7968 4.07514 
-45.3809 23.4932 4.00051 -49.954 24.1311 3.79402 -50.7943 23.8133 3.7673 
-51.779 23.8196 4.08632 -52.8762 23.7939 4.17986 -53.6568 23.5733 4.06076 
-54.2576 23.4516 4.46827 -45.7882 23.6749 3.33514 -46.0673 24.0131 2.6214 
-46.3766 23.2861 3.01655 -49.0967 24.1148 2.96245 -49.9333 23.7491 3.08625 
-50.6182 23.523 3.13168 -51.342 23.4784 3.39361 -52.2739 23.4616 3.48113 
-53.1291 23.4292 3.59626 -46.1496 24.319 2.02903 -46.795 23.2982 2.17695 
-46.9998 23.733 1.86734 -47.2283 23.6194 1.91501 -47.6756 23.4177 2.23595 
-49.0076 23.4709 2.41332 -50.1162 23.4086 2.63276 -47.0308 23.4668 1.77819 
-45.1908 22.7215 11.9771 -45.0314 22.4541 12.1509 -44.7807 22.6258 11.9788 
-45.279 22.3083 11.9676 -44.2558 22.3316 11.5367 -43.4332 22.5641 10.881 
-45.7967 22.5917 11.5135 -46.5841 22.1774 10.9674 -48.1372 22.8504 10.8458 
-48.0916 22.4647 11.1162 -47.7504 22.4207 10.812 -48.2773 22.5389 10.7063 
-42.9983 22.3419 10.3426 -42.6662 22.7538 9.93343 -47.1557 22.7337 10.6954 
-48.4559 22.3941 9.97581 -43.0419 22.4675 9.52499 -43.1461 22.961 8.80705 
-43.7001 22.4719 9.27846 -44.1568 22.7928 8.75814 -44.4186 22.1658 9.01842 
-49.085 22.34 9.5313 -50.0534 22.4661 9.423 -51.3298 23.0429 8.98788 
-50.9828 22.4843 9.33358 -52.2602 22.9806 8.99375 -52.0416 22.3156 9.33971 
-52.9116 22.9183 8.99145 -52.9602 22.3605 9.27987 -53.5139 22.4869 8.97924 
-43.1657 23.1396 7.80363 -43.9594 22.9709 8.01137 -45.0073 22.4052 8.51108 
-45.061 22.8582 7.91644 -45.5826 22.4 8.0723 -54.0234 22.9997 7.99825 
-54.0248 22.4845 8.48711 -54.5398 22.5165 7.96121 -43.9734 23.0149 6.88908 
-44.9676 22.9877 7.00491 -46.1165 22.4708 7.64114 -46.1238 22.9163 6.96528 
-46.9777 22.4182 7.30423 -47.03 22.7824 6.7672 -47.5477 22.3909 7.01328 
-55.0633 22.9528 6.60471 -54.8632 22.7602 7.37735 -55.3501 22.1824 7.16313 
-44.2698 23.0762 5.77722 -45.018 22.9317 5.94357 -45.8261 22.971 6.12067 
-46.6758 22.8165 5.9302 -47.4667 22.5179 6.33928 -55.0799 23.0278 5.66871 
-55.4269 22.3431 6.2231 -45.1659 23.0665 4.88514 -46.0087 22.8164 5.0558 
-46.6771 22.514 5.02765 -47.1758 22.4253 5.56907 -54.8909 23.0062 4.62399 
-55.4081 22.3755 5.22424 -45.9567 23.0436 4.0052 -46.4905 22.5223 4.04743 
-53.984 23.1734 3.78369 -54.7675 22.7935 3.73001 -55.3735 22.2588 4.15575 
-46.6586 22.5256 2.99104 -50.8418 23.2061 2.6889 -51.7297 22.9838 2.7743 
-52.891 22.9776 3.06718 -53.9415 22.7837 3.10425 -54.6298 22.5673 3.11008 
-55.1365 22.3505 3.38295 -47.1091 22.6992 2.38272 -47.1467 23.2144 1.97472 
-47.9101 22.4934 2.22867 -49.0316 22.843 1.82294 -48.3313 22.2892 1.78365 
-50.0269 23.1345 2.05678 -50.8584 22.8162 1.8666 -51.5442 22.3293 1.87979 
-52.3302 22.4901 2.36776 -53.2846 22.4698 2.47963 -54.1345 22.4245 2.63932 
-49.0742 22.2125 1.36916 -49.7399 22.3465 0.942808 -49.9037 22.7546 1.23692 
-50.4209 22.5697 1.05916 -50.7412 22.2228 1.38323 -50.0369 22.5188 0.768643 
-44.869 22.2126 11.9692 -44.0186 21.261 11.4973 -43.6248 21.6418 10.9951 
-45.061 21.757 11.64 -45.9144 21.5347 11.2664 -46.4468 21.4968 10.9157 
-48.0533 22.2621 10.9362 -43.0973 22.0223 9.93679 -43.3138 21.476 10.2291 
-46.9488 21.5723 10.4845 -47.9172 21.9774 10.3053 -47.4149 21.3106 9.82154 
-43.7115 21.6181 9.49695 -44.5124 21.2115 8.98322 -48.2095 21.4109 9.52548 
-49.1805 21.2928 9.34644 -50.051 21.4237 9.37315 -50.8812 21.5655 9.4175 
-51.7517 21.3596 9.54893 -52.8037 21.5642 9.59633 -54.0757 21.9456 8.98649 
-53.9401 21.3964 9.48337 -54.5732 21.4231 8.97455 -45.1451 21.5448 8.62753 
-45.7387 21.7454 8.27047 -46.1733 21.9343 7.91679 -46.4369 21.148 7.95396 
-55.1129 22.0331 7.8157 -54.88 21.6789 8.39775 -55.4028 21.2755 8.04191 
-46.9701 21.5794 7.60816 -47.753 21.7371 7.29275 -48.2174 21.9784 6.69315 
-48.4565 21.1492 6.96548 -55.6631 21.3941 7.03327 -47.9864 22.1323 5.71951 
-49.1366 21.3506 6.55466 -49.1409 21.9114 5.97075 -49.9791 21.3866 6.27874 
-50.0292 21.7867 5.78215 -50.5554 21.3866 5.98042 -55.6835 21.6387 5.94614 
-47.2193 22.1155 4.78218 -47.9558 21.9527 4.96184 -48.7202 21.865 4.94906 
-49.7225 21.8163 5.1469 -50.4933 21.5398 5.32115 -55.6781 21.6443 4.96249 
-46.935 22.0523 3.76161 -47.7524 21.7476 4.01858 -48.5781 21.519 4.12635 
-49.3525 21.4947 4.40713 -50.1291 21.4491 4.65059 -55.7137 21.5238 4.1148 
-47.1942 21.9583 2.91781 -47.5835 21.4561 3.0287 -48.0942 21.343 3.51901 
-54.9085 22.0772 2.61078 -55.5743 21.5602 3.09921 -47.6441 21.5326 2.24975 
-47.8801 21.9464 1.91032 -52.2104 22.1367 1.68031 -53.0225 22.1205 1.77029 
-54.0449 22.1233 2.03819 -54.8023 21.785 1.68985 -55.363 21.3759 1.97364 
-48.2238 21.5176 1.63182 -49.0452 21.2908 1.38496 -49.9191 21.7417 1.23425 
-50.1615 22.2642 0.935953 -51.1544 21.3255 1.21543 -51.8393 21.8357 1.16788 
-51.6849 21.4788 0.899925 -52.69 21.8433 1.01963 -53.8401 21.8078 1.12199 
-54.4944 21.5612 1.05242 -54.864 21.1461 1.2339 -52.1762 21.5584 0.713899 
-52.9922 21.4601 0.651918 -53.8344 21.4208 0.726466 -51.0231 20.6693 13.0427 
-50.9496 20.2967 13.1923 -50.7956 20.3084 12.7513 -51.2619 20.2053 12.9377 
-43.3237 20.7231 11.8622 -43.1646 20.134 12.2953 -42.7968 20.3617 11.9871 
-44.0983 20.7871 11.9195 -43.9378 20.3005 12.3016 -44.5895 20.3188 12.0578 
-51.1144 20.3847 12.5929 -42.7812 20.3491 11.468 -43.2348 20.8371 10.9105 
-45.0227 20.7764 11.5299 -46.0166 20.9328 10.929 -45.5516 20.0688 11.1137 
-43.0506 20.7136 10.0827 -42.7511 20.2964 10.3862 -42.7958 20.1873 9.81071 
[...]
CELL_DATA 15008
SCALARS scalars float
LOOKUP_TABLE default
1018 1018 1018 1018 1018 1018 1018 1018 1018 
1018 1018 1018 1018 1018 1018 1018 1018 1018 
1018 1018 1018 1018 1018 1018 1018 1018 1018 
1018 1018 1018 1018 1018 1018 1018 1018 1018 
1018 1018 1018 1018 1018 1018 1018 1018 1018 
1018 1018 1018 1018 1018 1018 1018 1018 1018 
1018 1018 1018 1018 1018 1018 1018 1018 1018 
1018 1018 1018 1018 1018 1018 1018 1018 1018 
1018 1018 1018 1018 1018 1018 1018 1018 1018 
1018 1018 1018 1018 1018 1018 1018 1018 1018 
1018 1018 1018 1018 1018 1018 1018 1018 1018 
1018 1018 1018 1018 1018 1018 1018 1018 1018 
1018 1018 1018 1018 1018 1018 1018 1018 1018 
1018 1018 1018 1018 1018 1018 1018 1018 1018 
1018 1018 1018 1018 1018 1018 1018 1018 1018 
1018 1018 1018 1018 1018 1018 1018 1018 1018 
1018 1018 1018 1018 1018 1018 1018 1018 1018 
1018 1018 1018 1018 1018 1018 1018 1018 1018 
1018 1018 1018 1018 1018 1018 1018 1018 1018 
1018 1018 1018 1018 1018 1018 1018 1018 1018 
1018 1018 1018 1018 1018 1018 1018 1018 1018 
1018 1018 1018 1018 1018 1018 1018 1018 1018 
1018 1018 1018 1018 1018 1018 1018 1018 1018 
1018 1018 1018 1018 1018 1018 1018 1018 1018 
1018 1018 1018 1018 1018 1018 1018 1018 1018 
1018 1018 1018 1018 1018 1018 1018 1018 1018 
1018 1018 1018 1018 1018 1018 1018 1018 1018 
1018 1018 1018 1018 1018 1018 1018 1018 1018 
1018 1018 1018 1018 1018 1018 1018 1018 1018 
1018 1018 1018 1018 1018 1018 1018 1018 1018 
1018 1018 1018 1018 1018 1018 1018 1018 1018 
1018 1018 1018 1018 1018 1018 1018 1018 1018 
1018 1018 1018 1018 1018 1018 1018 1018 1018 
1018 1018 1018 1018 1018 1018 1018 1018 1018 
1018 1018 1018 1018 1018 1018 1018 1018 1018 
1018 1018 1018 1018 1018 1018 1018 1018 1018 
1018 1018 1018 1018 1018 1018 1018 1018 1018 
1018 1018 1018 1018 1018 1018 1018 1018 1018 
1018 1018 1018 1018 1018 1018 1018 1018 1018 
1018 1018 1018 1018 1018 1018 1018 1018 1018 
1018 1018 1018 1018 1018 1018 1018 1018 1018 
1018 1018 1018 1018 1018 1018 1018 1018 1018 
1018 1018 1018 1018 1018 1018 1018 1018 1018 
1018 1018 1018 1018 1018 1018 1018 1018 1018 
1018 1018 1018 1018 1018 1018 1018 1018 1018 
1018 1018 1018 1018 1018 1018 1018 1018 1018 
1018 1018 1018 1018 1018 1018 1018 1018 1018 
1018 1018 1018 1018 1018 1018 1018 1018 1018 
1018 1018 1018 1018 1018 1018 1018 1018 1018 
1018 1018 1018 1018 1018 1018 1018 1018 1018 
1018 1018 1018 1018 1018 1018 1018 1018 1018 
1018 1018 1018 1018 1018 1018 1018 1018 1018 
1018 1018 1018 1018 1018 1018 1018 1018 1018 
1018 1018 1018 1018 1018 1018 1018 1018 1018 
1018 1018 1018 1018 1018 1018 1018 1018 1018 
1018 1018 1018 1018 1018 1018 1018 1018 1018 
1018 1018 1018 1018 1018 1018 1018 1018 1018 
1018 1018 1018 1018 1018 1018 1018 1018 1018 
1018 1018 1018 1018 1018 1018 1018 1018 1018 
1018 1018 1018 1018 1018 1018 1018 1018 1018 
1018 1018 1018 1018 1018 1018 1018 1018 1018 
1018 1018 1018 1018 1018 1018 1018 1018 1018 
1018 1018 1018 1018 1018 1018 1018 1018 1018 
1018 1018 1018 1018 1018 1018 1018 1018 1018 
1018 1018 1018 1018 1018 1018 1018 1018 1018 
1018 1018 1018 1018 1018 1018 1018 1018 1018 
1018 1018 1018 1018 1018 1018 1018 1018 1018 
1018 1018 1018 1018 1018 1018 1018 1018 1018 
1018 1018 1018 1018 1018 1018 1018 1018 1018 
1018 1018 1018 1018 1018 1018 1018 1018 1018 
1018 1018 1018 1018 1018 1018 1018 1018 1018 
1018 1018 1018 1018 1018 1018 1018 1018 1018 
1018 1018 1018 1018 1018 1018 1018 1018 1018 
1018 1018 1018 1018 1018 1018 1018 1018 1018 
1018 1018 1018 1018 1018 1018 1018 1018 1018 
1018 1018 1018 1018 1018 1018 1018 1018 1018 
1018 1018 1018 1018 1018 1018 1018 1018 1018 
1018 1018 1018 1018 1018 1018 1018 1018 1018 
1018 1018 1018 1018 1018 1018 1018 1018 1018 
1018 1018 1018 1018 1018 1018 1018 1018 1018 
1018 1018 1018 1018 1018 1018 1018 1018 1018 
1018 1018 1018 1018 1018 1018 1018 1018 1018 
1018 1018 1018 1018 1018 1018 1018 1018 1018 
1018 1018 1018 1018 1018 1018 1018 1018 1018 
1018 1018 1018 1018 1018 1018 1018 1018 1018 
1018 1018 1018 1018 1018 1018 1018 1018 1018 
1018 1018 1018 1018 1018 1018 1018 1018 1018 
1018 1018 1018 1018 1018 1018 1018 1018 1018 
1018 1018 1018 1018 1018 1018 1018 1018 1018 
1018 1018 1018 1018 1018 1018 1018 1018 1018 
1018 1018 1018 1018 1018 1018 1018 1018 1018 
1018 1018 1018 1018 1018 1018 1018 1018 1018 
1018 1018 1018 1018 1018 1018 1018 1018 1018 
1018 1018 1018 1018 1018 1018 1018 1018 1018 
1018 1018 1018 1018 1018 1018 1018 1018 1018 
1018 1018 1018 1018 1018 1018 1018 1018 1018 
1018 1018 1018 1018 1018 1018 1018 1018 1018 
1018 1018 1018 1018 1018 1018 1018 1018 1018 
1018 1018 1018 1018 1018 1018 1018 1018 1018 
1018 1018 1018 1018 1018 1018 1018 1018 1018 
1018 1018 1018 1018 1018 1018 1018 1018 1018 
1018 1018 1018 1018 1018 1018 1018 1018 1018 
1018 1018 1018 1018 1018 1018 1018 1018 1018 
1018 1018 1018 1018 1018 1018 1018 1018 1018 
1018 1018 1018 1018 1018 1018 1018 1018 1018 
1018 1018 1018 1018 1018 1018 1018 1018 1018 
1018 1018 1018 1018 1018 1018 1018 1018 1018 
1018 1018 1018 1018 1018 1018 1018 1018 1018 
1018 1018 1018 1018 1018 1018 1018 1018 1018 
1018 1018 1018 1018 1018 1018 1018 1018 1018 
1018 1018 1018 1018 1018 1018 1018 1018 1018 
1018 1018 1018 1018 1018 1018 1018 1018 1018 
1018 1018 1018 1018 1018 1018 1018 1018 1018 
1018 1018 1018 1018 1018 1018 1018 1018 1018 
1018 1018 1018 1018 1018 1018 1018 1018 1018 
1018 1018 1018 1018 1018 1018 1018 1018 1018 
1018 1018 1018 1018 1018 1018 1018 1018 1018 
1018 1018 1018 1018 1018 1018 1018 1018 1018 
1018 1018 1018 1018 1018 1018 1018 1018 1018 
1018 1018 1018 1018 1018 1018 1018 1018 1018 
1018 1018 1018 1018 1018 1018 1018 1018 1018 
1018 1018 1018 1018 1018 1018 1018 1018 1018 
1018 1018 1018 1018 1018 1018 1018 1018 1018 
1018 1018 1018 1018 1018 1018 1018 1018 1018 
1018 1018 1018 1018 1018 1018 1018 1018 1018 
1018 1018 1018 1018 1018 1018 1018 1018 1018 
1018 1018 1018 1018 1018 1018 1018 1018 1018 
1018 1018 1018 1018 1018 1018 1018 1018 1018 
1018 1018 1018 1018 1018 1018 1018 1018 1018 
1018 1018 1018 1018 1018 1018 1018 1018 1018 
1018 1018 1018 1018 1018 1018 1018 1018 1018 
1018 1018 1018 1018 1018 1018 1018 1018 1018 
1018 1018 1018 1018 1018 1018 1018 1018 1018 
1018 1018 1018 1018 1018 1018 1018 1018 1018 
1018 1018 1018 1018 1018 1018 1018 1018 1018 
1018 1018 1018 1018 1018 1018 1018 1018 1018 
1018 1018 1018 1018 1018 1018 1018 1018 1018 
1018 1018 1018 1018 1018 1018 1018 1018 1018 
1018 1018 1018 1018 1018 1018 1018 1018 1018 
1018 1018 1018 1018 1018 1018 1018 1018 1018 
1018 1018 1018 1018 1018 1018 1018 1018 1018 
1018 1018 1018 1018 1018 1018 1018 1018 1018 
1018 1018 1018 1018 1018 1018 1018 1018 1018 
1018 1018 1018 1018 1018 1018 1018 1018 1018 
1018 1018 1018 1018 1018 1018 1018 1018 1018 
1018 1018 1018 1018 1018 1018 1018 1018 1018 
1018 1018 1018 1018 1018 1018 1018 1018 1018 
1018 1018 1018 1018 1018 1018 1018 1018 1018 
1018 1018 1018 1018 1018 1018 1018 1018 1018 
1018 1018 1018 1018 1018 1018 1018 1018 1018 
1018 1018 1018 1018 1018 1018 1018 1018 1018 
1018 1018 1018 1018 1018 1018 1018 1018 1018 
1018 1018 1018 1018 1018 1018 1018 1018 1018 
1018 1018 1018 1018 1018 1018 1018 1018 1018 
1018 1018 1018 1018 1018 1018 1018 1018 1018 
1018 1018 1018 1018 1018 1018 1018 1018 1018 
1018 1018 1018 1018 1018 1018 1018 1018 1018 
1018 1018 1018 1018 1018 1018 1018 1018 1018 
1018 1018 1018 1018 1018 1018 1018 1018 1018 
1018 1018 1018 1018 1018 1018 1018 1018 1018 
1018 1018 1018 1018 1018 1018 1018 1018 1018 
1018 1018 1018 1018 1018 1018 1018 1018 1018 
1018 1018 1018 1018 1018 1018 1018 1018 1018 
1018 1018 1018 1018 1018 1018 1018 1018 1018 
1018 1018 1018 1018 1018 1018 1018 1018 1018 
1018 1018 1018 1018 1018 1018 1018 1018 1018 
1018 1018 1018 1018 1018 1018 1018 1018 1018 
1018 1018 1018 1018 1018 1018 1018 1018 1018 
1018 1018 1018 1018 1018 1018 1018 1018 1018 
1018 1018 1018 1018 1018 1018 1018 1018 1018 
1018 1018 1018 1018 1018 1018 1018 1018 1018 
1018 1018 1018 1018 1018 1018 1018 1018 1018 
1018 1018 1018 1018 1018 1018 1018 1018 1018 
1018 1018 1018 1018 1018 1018 1018 1018 1018 
1018 1018 1018 1018 1018 1018 1018 1018 1018 
1018 1018 1018 1018 1018 1018 1018 1018 1018 
1018 1018 1018 1018 1018 1018 1018 1018 1018 
1018 1018 1018 1018 1018 1018 1018 1018 1018 
1018 1018 1018 1018 1018 1018 1018 1018 1018 
1018 1018 1018 1018 1018 1018 1018 1018 1018 
1018 1018 1018 1018 1018 1018 1018 1018 1018 
1018 1018 1018 1018 1018 1018 1018 1018 1018 
1018 1018 1018 1018 1018 1018 1018 1018 1018 
1018 1018 1018 1018 1018 1018 1018 1018 1018 
1018 1018 1018 1018 1018 1018 1018 1018 1018 
1018 1018 1018 1018 1018 1018 1018 1018 1018 
1018 1018 1018 1018 1018 1018 1018 1018 1018 
1018 1018 1018 1018 1018 1018 1018 1018 1018 
1018 1018 1018 1018 1018 1018 1018 1018 1018 
1018 1018 1018 1018 1018 1018 1018 1018 1018 
1018 1018 1018 1018 1018 1018 1018 1018 1018 
1018 1018 1018 1018 1018 1018 1018 1018 1018 
1018 1018 1018 1018 1018 1018 1018 1018 1018 
1018 1018 1018 1018 1018 1018 1018 1018 1018 
1018 1018 1018 1018 1018 1018 1018 1018 1018 
1018 1018 1018 1018 1018 1018 1018 1018 1018 
1018 1018 1018 1018 1018 1018 1018 1018 1018 
1018 1018 1018 1018 1018 1018 1018 1018 1018 
1018 1018 1018 1018 1018 1018 1018 1018 1018 
1018 1018 1018 1018 1018 1018 1018 1018 1018 
1018 1018 1018 1018 1018 1018 1018 1018 1018 
1018 1018 1018 1018 1018 1018 1018 1018 1018 
1018 1018 1018 1018 1018 1018 1018 1018 1018 
1018 1018 1018 1018 1018 1018 1018 1018 1018 
1018 1018 1018 1018 1018 1018 1018 1018 1018 
1018 1018 1018 1018 1018 1018 1018 1018 1018 
1018 1018 1018 1018 1018 1018 1018 1018 1018 
1018 1018 1018 1018 1018 1018 1018 1018 1018 
1018 1018 1018 1018 1018 1018 1018 1018 1018 
1018 1018 1018 1018 1018 1018 1018 1018 1018 
1018 1018 1018 1018 1018 1018 1018 1018 1018 
1018 1018 1018 1018 1018 1018 1018 1018 1018 
1018 1018 1018 1018 1018 1018 1018 1018 1018 
1018 1018 1018 1018 1018 1018 1018 1018 1018 
1018 1018 1018 1018 1018 1018 1018 1018 1018 
1018 1018 1018 1018 1018 1018 1018 1018 1018 
1018 1018 1018 1018 1018 1018 1018 1018 1018 
1018 1018 1018 1018 1018 1018 1018 1018 1018 
1018 1018 1018 1018 1018 1018 1018 1018 1018 
1018 1018 1018 1018 1018 1018 1018 1018 1018 
1018 1018 1018 1018 1018 1018 1018 1018 1018 
1018 1018 1018 1018 1018 1018 1018 1018 1018 
1018 1018 1018 1018 1018 1018 1018 1018 1018 
1018 1018 1018 1018 1018 1018 1018 1018 1018 
1018 1018 1018 1018 1018 1018 1018 1018 1018 
1018 1018 1018 1018 1018 1018 1018 1018 1018 
1018 1018 1018 1018 1018 1018 1018 1018 1018 
1018 1018 1018 1018 1018 1018 1018 1018 1018 
1018 1018 1018 1018 1018 1018 1018 1018 1018 
1018 1018 1018 1018 1018 1018 1018 1018 1018 
1018 1018 1018 1018 1018 1018 1018 1018 1018 
1018 1018 1018 1018 1018 1018 1018 1018 1018 
1018 1018 1018 1018 1018 1018 1018 1018 1018 
1018 1018 1018 1018 1018 1018 1018 1018 1018 
1018 1018 1018 1018 1018 1018 1018 1018 1018 
1018 1018 1018 1018 1018 1018 1018 1018 1018 
1018 1018 1018 1018 1018 1018 1018 1018 1018 
1018 1018 1018 1018 1018 1018 1018 1018 1018 
1018 1018 1018 1018 1018 1018 1018 1018 1018 
1018 1018 1018 1018 1018 1018 1018 1018 1018 
1018 1018 1018 1018 1018 1018 1018 1018 1018 
1018 1018 1018 1018 1018 1018 1018 1018 1018 
1018 1018 1018 1018 1018 1018 1018 1018 1018 
1018 1018 1018 1018 1018 1018 1018 1018 1018 
1018 1018 1018 1018 1018 1018 1018 1018 1018 
1018 1018 1018 1018 1018 1018 1018 1018 1018 
1018 1018 1018 1018 1018 1018 1018 1018 1018 
1018 1018 1018 1018 1018 1018 1018 1018 1018 
1018 1018 1018 1018 1018 1018 1018 1018 1018 
1018 1018 1018 1018 1018 1018 1018 1018 1018 
1018 1018 1018 1018 1018 1018 1018 1018 1018 
1018 1018 1018 1018 1018 1018 1018 1018 1018 
1018 1018 1018 1018 1018 1018 1018 1018 1018 
1018 1018 1018 1018 1018 1018 1018 1018 1018 
1018 1018 1018 1018 1018 1018 1018 1018 1018 
1018 1018 1018 1018 1018 1018 1018 1018 1018 
1018 1018 1018 1018 1018 1018 1018 1018 1018 
1018 1018 1018 1018 1018 1018 1018 1018 1018 
1018 1018 1018 1018 1018 1018 1018 1018 1018 
1018 1018 1018 1018 1018 1018 1018 1018 1018 
1018 1018 1018 1018 1018 1018 1018 1018 1018 
1018 1018 1018 1018 1018 1018 1018 1018 1018 
1018 1018 1018 1018 1018 1018 1018 1018 1018 
1018 1018 1018 1018 1018 1018 1018 1018 1018 
1018 1018 1018 1018 1018 1018 1018 1018 1018 
1018 1018 1018 1018 1018 1018 1018 1018 1018 
1018 1018 1018 1018 1018 1018 1018 1018 1018 
1018 1018 1018 1018 1018 1018 1018 1018 1018 
1018 1018 1018 1018 1018 1018 1018 1018 1018 
1018 1018 1018 1018 1018 1018 1018 1018 1018 
1018 1018 1018 1018 1018 1018 1018 1018 1018 
1018 1018 1018 1018 1018 1018 1018 1018 1018 
1018 1018 1018 1018 1018 1018 1018 1018 1018 
1018 1018 1018 1018 1018 1018 1018 1018 1018 
1018 1018 1018 1018 1018 1018 1018 1018 1018 
1018 1018 1018 1018 1018 1018 1018 1018 1018 
1018 1018 1018 1018 1018 1018 1018 1018 1018 
1018 1018 1018 1018 1018 1018 1018 1018 1018 
1018 1018 1018 1018 1018 1018 1018 1018 1018 
1018 1018 1018 1018 1018 1018 1018 1018 1018 
1018 1018 1018 1018 1018 1018 1018 1018 1018 
1018 1018 1018 1018 1018 1018 1018 1018 1018 
1018 1018 1018 1018 1018 1018 1018 1018 1018 
1018 1018 1018 1018 1018 1018 1018 1018 1018 
1018 1018 1018 1018 1018 1018 1018 1018 1018 
1018 1018 1018 1018 1018 1018 1018 1018 1018 
1018 1018 1018 1018 1018 1018 1018 1018 1018 
1018 1018 1018 1018 1018 1018 1018 1018 1018 
1018 1018 1018 1018 1018 1018 1018 1018 1018 
1018 1018 1018 1018 1018 1018 1018 1018 1018 
1018 1018 1018 1018 1018 1018 1018 1018 1018 
1018 1018 1018 1018 1018 1018 1018 1018 1018 
1018 1018 1018 1018 1018 1018 1018 1018 1018 
1018 1018 1018 1018 1018 1018 1018 1018 1018 
1018 1018 1018 1018 1018 1018 1018 1018 1018 
1018 1018 1018 1018 1018 1018 1018 1018 1018 
1018 1018 1018 1018 1018 1018 1018 1018 1018 
1018 1018 1018 1018 1018 1018 1018 1018 1018 
1018 1018 1018 1018 1018 1018 1018 1018 1018 
1018 1018 1018 1018 1018 1018 1018 1018 1018 
1018 1018 1018 1018 1018 1018 1018 1018 1018 
1018 1018 1018 1018 1018 1018 1018 1018 1018 
1018 1018 1018 1018 1018 1018 1018 1018 1018 
1018 1018 1018 1018 1018 1018 1018 1018 1018 
1018 1018 1018 1018 1018 1018 1018 1018 1018 
1018 1018 1018 1018 1018 1018 1018 1018 1018 
1018 1018 1018 1018 1018 1018 1018 1018 1018 
1018 1018 1018 1018 1018 1018 1018 1018 1018 
1018 1018 1018 1018 1018 1018 1018 1018 1018 
1018 1018 1018 1018 1018 1018 1018 1018 1018 
1018 1018 1018 1018 1018 1018 1018 1018 1018 
1018 1018 1018 1018 1018 1018 1018 1018 1018 
1018 1018 1018 1018 1018 1018 1018 1018 1018 
1018 1018 1018 1018 1018 1018 1018 1018 1018 
1018 1018 1018 1018 1018 1018 1018 1018 1018 
1018 1018 1018 1018 1018 1018 1018 1018 1018 
1018 1018 1018 1018 1018 1018 1018 1018 1018 
1018 1018 1018 1018 1018 1018 1018 1018 1018 
1018 1018 1018 1018 1018 1018 1018 1018 1018 
1018 1018 1018 1018 1018 1018 1018 1018 1018 
1018 1018 1018 1018 1018 1018 1018 1018 1018 
1018 1018 1018 1018 1018 1018 1018 1018 1018 
1018 1018 1018 1018 1018 1018 1018 1018 1018 
1018 1018 1018 1018 1018 1018 1018 1018 1018 
1018 1018 1018 1018 1018 1018 1018 1018 1018 
1018 1018 1018 1018 1018 1018 1018 1018 1018 
1018 1018 1018 1018 1018 1018 1018 1018 1018 
1018 1018 1018 1018 1018 1018 1018 1018 1018 
1018 1018 1018 1018 1018 1018 1018 1018 1018 
1018 1018 1018 1018 1018 1018 1018 1018 1018 
1018 1018 1018 1018 1018 1018 1018 1018 1018 
1018 1018 1018 1018 1018 1018 1018 1018 1018 
1018 1018 1018 1018 1018 1018 1018 1018 1018 
1018 1018 1018 1018 1018 1018 1018 1018 1018 
1018 1018 1018 1018 1018 1018 1018 1018 1018 
1018 1018 1018 1018 1018 1018 1018 1018 1018 
1018 1018 1018 1018 1018 1018 1018 1018 1018 
1018 1018 1018 1018 1018 1018 1018 1018 1018 
1018 1018 1018 1018 1018 1018 1018 1018 1018 
1018 1018 1018 1018 1018 1018 1018 1018 1018 
1018 1018 1018 1018 1018 1018 1018 1018 1018 
1018 1018 1018 1018 1018 1018 1018 1018 1018 
1018 1018 1018 1018 1018 1018 1018 1018 1018 
1018 1018 1018 1018 1018 1018 1018 1018 1018 
1018 1018 1018 1018 1018 1018 1018 1018 1018 
1018 1018 1018 1018 1018 1018 1018 1018 1018 
1018 1018 1018 1018 1018 1018 1018 1018 1018 
1018 1018 1018 1018 1018 1018 1018 1018 1018 
1018 1018 1018 1018 1018 1018 1018 1018 1018 
1018 1018 1018 1018 1018 1018 1018 1018 1018 
1018 1018 1018 1018 1018 1018 1018 1018 1018 
1018 1018 1018 1018 1018 1018 1018 1018 1018 
1018 1018 1018 1018 1018 1018 1018 1018 1018 
1018 1018 1018 1018 1018 1018 1018 1018 1018 
1018 1018 1018 1018 1018 1018 1018 1018 1018 
1018 1018 1018 1018 1018 1018 1018 1018 1018 
1018 1018 1018 1018 1018 1018 1018 1018 1018 
1018 1018 1018 1018 1018 1018 1018 1018 1018 
1018 1018 1018 1018 1018 1018 1018 1018 1018 
1018 1018 1018 1018 1018 1018 1018 1018 1018 
1018 1018 1018 1018 1018 1018 1018 1018 1018 
1018 1018 1018 1018 1018 1018 1018 1018 1018 
1018 1018 1018 1018 1018 1018 1018 1018 1018 
1018 1018 1018 1018 1018 1018 1018 1018 1018 
1018 1018 1018 1018 1018 1018 1018 1018 1018 
1018 1018 1018 1018 1018 1018 1018 1018 1018 
1018 1018 1018 1018 1018 1018 1018 1018 1018 
1018 1018 1018 1018 1018 1018 1018 1018 1018 
1018 1018 1018 1018 1018 1018 1018 1018 1018 
1018 1018 1018 1018 1018 1018 1018 1018 1018 
1018 1018 1018 1018 1018 1018 1018 1018 1018 
1018 1018 1018 1018 1018 1018 1018 1018 1018 
1018 1018 1018 1018 1018 1018 1018 1018 1018 
1018 1018 1018 1018 1018 1018 1018 1018 1018 
1018 1018 1018 1018 1018 1018 1018 1018 1018 
1018 1018 1018 1018 1018 1018 1018 1018 1018 
1018 1018 1018 1018 1018 1018 1018 1018 1018 
1018 1018 1018 1018 1018 1018 1018 1018 1018 
1018 1018 1018 1018 1018 1018 1018 1018 1018 
1018 1018 1018 1018 1018 1018 1018 1018 1018 
1018 1018 1018 1018 1018 1018 1018 1018 1018 
1018 1018 1018 1018 1018 1018 1018 1018 1018 
1018 1018 1018 1018 1018 1018 1018 1018 1018 
1018 1018 1018 1018 1018 1018 1018 1018 1018 
1018 1018 1018 1018 1018 1018 1018 1018 1018 
1018 1018 1018 1018 1018 1018 1018 1018 1018 
1018 1018 1018 1018 1018 1018 1018 1018 1018 
1018 1018 1018 1018 1018 1018 1018 1018 1018 
1018 1018 1018 1018 1018 1018 1018 1018 1018 
1018 1018 1018 1018 1018 1018 1018 1018 1018 
1018 1018 1018 1018 1018 1018 1018 1018 1018 
1018 1018 1018 1018 1018 1018 1018 1018 1018 
1018 1018 1018 1018 1018 1018 1018 1018 1018 
1018 1018 1018 1018 1018 1018 1018 1018 1018 
1018 1018 1018 1018 1018 1018 1018 1018 1018 
1018 1018 1018 1018 1018 1018 1018 1018 1018 
1018 1018 1018 1018 1018 1018 1018 1018 1018 
1018 1018 1018 1018 1018 1018 1018 1018 1018 
1018 1018 1018 1018 1018 1018 1018 1018 1018 
1018 1018 1018 1018 1018 1018 1018 1018 1018 
1018 1018 1018 1018 1018 1018 1018 1018 1018 
1018 1018 1018 1018 1018 1018 1018 1018 1018 
1018 1018 1018 1018 1018 1018 1018 1018 1018 
1018 1018 1018 1018 1018 1018 1018 1018 1018 
1018 1018 1018 1018 1018 1018 1018 1018 1018 
1018 1018 1018 1018 1018 1018 1018 1018 1018 
1018 1018 1018 1018 1018 1018 1018 1018 1018 
1018 1018 1018 1018 1018 1018 1018 1018 1018 
1018 1018 1018 1018 1018 1018 1018 1018 1018 
1018 1018 1018 1018 1018 1018 1018 1018 1018 
1018 1018 1018 1018 1018 1018 1018 1018 1018 
1018 1018 1018 1018 1018 1018 1018 1018 1018 
1018 1018 1018 1018 1018 1018 1018 1018 1018 
1018 1018 1018 1018 1018 1018 1018 1018 1018 
1018 1018 1018 1018 1018 1018 1018 1018 1018 
1018 1018 1018 1018 1018 1018 1018 1018 1018 
1018 1018 1018 1018 1018 1018 1018 1018 1018 
1018 1018 1018 1018 1018 1018 1018 1018 1018 
1018 1018 1018 1018 1018 1018 1018 1018 1018 
1018 1018 1018 1018 1018 1018 1018 1018 1018 
1018 1018 1018 1018 1018 1018 1018 1018 1018 
1018 1018 1018 1018 1018 1018 1018 1018 1018 
1018 1018 1018 1018 1018 1018 1018 1018 1018 
1018 1018 1018 1018 1018 1018 1018 1018 1018 
1018 1018 1018 1018 1018 1018 1018 1018 1018 
1018 1018 1018 1018 1018 1018 1018 1018 1018 
1018 1018 1018 1018 1018 1018 1018 1018 1018 
1018 1018 1018 1018 1018 1018 1018 1018 1018 
1018 1018 1018 1018 1018 1018 1018 1018 1018 
1018 1018 1018 1018 1018 1018 1018 1018 1018 
1018 1018 1018 1018 1018 1018 1018 1018 1018 
1018 1018 1018 1018 1018 1018 1018 1018 1018 
1018 1018 1018 1018 1018 1018 1018 1018 1018 