# vtk DataFile Version 4.0
vtk output
ASCII
DATASET POLYDATA
POINTS 3682 float
-2.05187 35.8964 24.8571 -1.78776 35.2826 25.2984 -1.39923 35.6798 24.8532 
-2.75998 35.8202 24.6858 -2.67867 35.3782 25.4352 -3.44329 35.2456 24.9186 
-1.25638 35.8272 24.2692 -0.950184 35.6063 24.5151 -0.716171 35.4309 24.005 
-1.95625 35.8728 24.1188 -2.59264 35.6349 24.0926 -3.12195 35.395 24.3487 
-1.29273 35.3581 23.5272 -2.17375 35.2454 23.6513 -3.36832 34.9903 25.839 
-3.15077 34.5705 26.4231 -2.66626 34.607 26.1196 -4.03563 34.7983 25.7884 
-3.992 34.3941 26.3762 -4.43294 34.523 25.8951 -0.905462 35.1647 24.816 
-1.11555 34.4298 25.2873 -0.453605 34.4866 24.8308 -1.90165 34.4218 25.682 
-3.91761 34.9248 25.2526 -4.47395 34.5178 25.323 -0.217923 34.9286 24.0284 
0.0855939 34.1624 24.4289 0.316214 34.5466 23.728 -2.86977 35.0907 23.8903 
-3.48495 34.7457 24.139 -4.11636 34.5638 24.6257 -5.97182 34.661 23.9661 
-6.03435 34.2855 24.3536 -5.64562 34.3568 23.7714 -6.38463 34.4283 24.0611 
-0.0459589 34.9624 22.9552 0.444516 34.4561 22.9225 -0.755691 35.0391 23.0226 
-1.44207 34.6713 22.9102 -2.04897 34.6068 23.2261 -2.92754 34.5297 23.5673 
-6.25005 34.3401 23.7296 0.0393068 34.8511 22.135 0.39067 34.2192 21.838 
-0.631793 34.8579 22.0519 -1.483 34.2927 22.0551 -0.296411 34.5639 21.4086 
-0.995415 34.3655 21.3973 -3.10941 34.0152 26.8298 -2.92929 33.4454 27.3439 
-2.41599 33.5367 26.8318 -4.07607 33.8474 26.9421 -3.70357 33.5088 27.4447 
-4.45134 33.1826 27.1792 -2.19901 33.8935 26.2556 -1.81282 33.3756 26.3688 
-1.5646 33.5986 25.8787 -5.07453 34.0169 25.7375 -4.91074 33.5021 26.4843 
-5.63852 33.336 26.0309 -1.15666 33.7239 25.5292 -0.454366 33.687 25.0966 
-4.8557 34.1473 24.7729 -6.10937 33.3153 25.5822 -5.69561 33.9554 24.9707 
-6.51549 33.4972 24.9569 0.151364 33.4066 24.6411 0.488457 33.6457 23.9514 
-4.09728 34.1348 23.7587 -5.2111 34.1506 24.143 -7.06565 34.025 23.9842 
-6.98472 33.6783 24.4492 -8.03249 33.792 23.9549 -8.00518 33.4236 24.3417 
-8.8409 33.7186 23.9316 -8.97345 33.4246 24.2716 -9.50344 33.4169 24.0666 
0.609279 33.5285 22.9501 -2.09827 34.1505 22.6113 -3.08969 34.0587 22.9301 
-4.00347 33.9533 22.9465 -4.87847 33.8713 23.0211 -5.99062 33.7417 23.2668 
-5.49745 33.5231 22.9182 -7.10505 33.6798 23.4621 -8.29795 33.3715 23.4672 
-9.27757 33.2859 23.6939 0.573728 33.3488 22.1023 -2.10408 33.9107 22.0765 
-2.74597 33.8057 22.1166 -3.80578 33.787 22.1819 -4.47186 33.3595 21.9345 
-5.13562 33.1722 22.4808 0.018628 34.0593 21.0142 0.327878 33.4198 21.217 
-0.653724 33.971 20.8835 -1.42721 33.7341 21.1202 -2.2683 33.5734 21.4896 
-3.30389 33.4591 21.4628 -4.03395 33.346 21.4279 -0.172185 33.5791 20.6849 
-0.840979 33.2748 20.4966 -2.00472 33.4747 20.2472 -1.7935 33.3661 19.9403 
-2.03759 33.5619 20.0059 -2.25715 33.4078 20.1279 -2.16207 33.3886 19.7607 
-3.05447 33.666 17.8898 -2.87531 33.4848 18.1674 -2.76858 33.5303 17.7235 
-3.29584 33.1689 18.0942 -3.1004 33.3949 17.5221 -2.0542 32.8193 27.8565 
-2.03922 32.542 28.3599 -1.44965 32.5179 27.9852 -3.12378 33.017 27.8941 
-2.74868 32.54 28.4922 -4.0219 33.0112 27.8417 -3.9306 32.3323 28.504 
-4.53482 32.4812 27.8267 -1.21097 32.7885 27.1637 -0.866448 32.3605 27.5427 
-0.658609 32.3464 26.8603 -2.05064 33.1399 27.0851 -4.76469 32.5151 27.1819 
-0.978206 33.061 26.0354 -0.413945 32.3087 26.0056 -5.00695 32.7491 26.7219 
-6.06389 32.9595 25.9664 -5.86941 32.4471 26.4532 -6.53731 32.4489 25.9514 
-0.155147 32.8972 25.2106 0.0138709 32.1402 25.3687 0.348363 32.692 24.6854 
-7.16873 32.9003 24.8754 -7.0358 32.4134 25.4607 -7.61533 32.2723 25.0243 
0.560843 32.531 23.9648 -7.84009 32.7393 24.6603 -8.9634 32.5048 24.5645 
-9.92862 32.9528 23.912 -9.82318 32.7264 24.2633 -10.3763 32.1695 23.8587 
0.445353 32.4379 23.0235 -5.90243 33.1914 22.8428 -6.70567 33.0457 22.9247 
-7.67676 32.9159 22.9586 -8.44056 32.6555 23.0019 -9.14274 32.6933 23.2641 
-9.85243 32.67 23.5595 0.346193 32.6484 21.9997 -4.58691 32.521 22.0676 
-4.9513 32.4633 22.5172 -5.9932 32.5087 22.6415 -7.26057 32.3234 22.5858 
-8.21197 32.1984 22.6203 0.143959 32.665 21.3181 -0.12379 32.9719 20.7041 
-0.248352 32.2365 21.135 -1.96217 33.2633 20.5445 -3.05509 33.1144 20.8051 
-4.10001 32.991 20.7851 -4.57763 32.5469 21.267 -0.605541 32.4641 20.074 
-1.21943 33.0485 19.8458 -2.70478 33.1122 19.9293 -3.75087 32.8551 19.9168 
-4.88905 32.5929 20.5152 -4.69857 32.7091 20.0411 -5.34555 32.1755 20.0266 
-1.07621 32.805 19.0074 -0.702378 32.4027 19.1341 -1.93967 33.13 19.2442 
-2.9739 33.0789 18.9091 -3.6641 32.6512 18.9284 -4.37603 32.4926 19.4292 
-4.95981 32.4826 19.6036 -1.20443 32.3415 18.5575 -1.6366 32.3658 17.6808 
-2.06179 33.0456 18.0785 -3.66476 32.4542 18.1546 -1.95103 32.7794 17.1391 
-1.66281 32.4516 16.9942 -2.65908 32.9948 17.0947 -3.43135 32.6446 17.3005 
-2.04921 32.3796 16.4604 -3.04752 32.4306 16.5634 -5.05865 32.673 15.9378 
-4.90142 32.4932 16.1913 -4.68742 32.3657 15.7299 -5.36635 32.2905 16.1249 
-5.1514 32.3227 15.7328 -3.14823 31.7992 29.6543 -3.19528 31.2638 30.4472 
-2.50476 31.517 30.0118 -3.60769 31.3245 30.0677 -2.10791 32.0547 28.9422 
-1.92523 31.3536 29.5915 -1.4787 31.3398 28.9749 -3.14838 32.2102 28.9931 
-4.07282 31.2966 29.5992 -3.80548 31.9258 29.1489 -4.54078 31.4541 28.998 
-1.14954 31.9347 28.234 -1.0021 31.1389 28.3938 -0.680617 31.676 27.6689 
-5.19858 31.9028 27.6018 -5.04074 31.441 28.4554 -5.62437 31.2674 28.0194 
-0.491017 31.5127 26.8917 -5.2308 32.2418 26.9351 -6.07566 31.2285 27.5774 
-5.76528 31.8529 27.0858 -6.51581 31.4178 26.9674 -0.288816 31.5243 26.0673 
-7.01417 31.9185 25.9653 -6.84397 31.6761 26.3863 -7.39588 31.4939 26.0459 
0.0645273 31.3847 25.6099 0.411511 31.5994 24.9325 -8.35036 31.9935 24.947 
-7.8675 31.6798 25.4644 -9.14665 31.7568 24.8619 -8.70053 31.4385 25.3669 
-9.45091 31.365 25.1003 0.414416 31.378 23.9964 -10.0768 31.5515 24.5672 
-10.7855 31.3932 24.0284 0.0928574 31.5559 23.331 -0.000329166 31.9149 22.6556 
-0.270087 31.229 23.0124 -5.25561 31.9956 22.9424 -4.59548 31.5941 22.846 
-5.06058 31.309 23.4588 -5.70928 31.5226 23.2118 -6.03513 31.8636 22.8572 
-6.41434 31.1512 22.9475 -9.11687 32.1375 22.7491 -10.1162 32.1391 23.1109 
-10.9222 31.6719 23.4443 -10.8335 31.7824 22.6853 -11.3693 31.1578 23.0423 
-0.0333965 32.1501 21.8723 -0.511038 31.3997 22.138 -4.6445 31.4463 22.0785 
-6.96444 31.5403 22.5505 -7.89097 31.6269 22.4141 -8.83508 31.5316 22.2882 
-9.43102 31.3352 21.864 -9.94363 31.788 22.2696 -10.6761 31.6376 22.0642 
-11.1771 31.4166 22.2993 -0.684857 31.6138 21.0451 -4.96131 31.6726 21.3742 
-5.11288 32.1093 20.7803 -5.38763 31.3554 21.0161 -10.1771 31.2253 21.6282 
-1.08269 31.3853 20.476 -0.893899 31.9194 19.618 -1.45218 31.3273 19.9494 
-5.77075 31.3113 20.2437 -0.885212 32.0952 19.0431 -1.46033 31.6283 19.1727 
-4.20176 32.1711 18.6463 -5.2154 32.1271 18.9868 -5.88853 31.7306 19.4552 
-6.07837 31.8153 18.6846 -6.38393 31.2669 19.1297 -1.80398 31.7764 18.38 
-1.89862 31.7767 17.761 -2.31656 31.4225 18.1004 -4.14185 32.0905 17.6804 
-5.04992 31.9829 17.9321 -5.95991 31.8762 17.9302 -6.49546 31.3808 18.1789 
-2.00172 31.1378 17.4967 -1.45792 31.8609 16.985 -3.8403 32.14 16.7277 
-4.98923 32.0479 16.8303 -5.83725 31.8176 17.1688 -6.41557 31.375 17.2481 
-1.18535 31.7857 16.1563 -0.831761 31.3502 16.5534 -0.687922 31.1765 15.9928 
-1.94587 31.9291 15.7402 -3.08828 32.1169 15.9224 -4.23083 32.1939 16.1023 
-5.9535 31.4075 16.4711 -5.50382 31.6988 15.8428 -0.277618 31.8022 14.7144 
-0.0463241 31.2821 15.1717 0.286703 31.5837 14.7367 -1.29195 31.4823 15.5341 
-0.486992 31.5253 15.0243 -2.02498 31.5764 15.2787 -2.57807 31.4057 14.7631 
-2.77813 31.7902 15.1831 -3.93033 31.8439 15.1613 -4.90705 31.4791 15.3866 
-4.40437 31.3743 14.8773 -0.100566 31.9017 14.017 0.565952 31.3604 14.1242 
-0.848069 31.624 14.5774 -0.88411 31.8743 13.889 -1.37674 31.4784 14.023 
-3.34988 31.3101 14.4663 -4.03588 31.2513 14.609 0.0602037 31.4741 13.4397 
-0.534741 31.243 12.8994 -0.74202 31.8179 13.1848 -1.50077 31.5672 13.216 
-1.31013 31.3237 12.6519 -2.81394 30.9297 30.795 -2.8887 30.1769 31.3028 
-2.41591 30.558 30.8775 -3.51165 30.5219 31.0232 -2.19774 30.9489 30.301 
-2.03147 30.513 30.5214 -1.59261 30.5888 29.798 -3.98645 30.9829 30.0258 
-3.82687 30.7691 30.4716 -4.38106 30.5518 30.0589 -1.24252 30.7007 28.9486 
-5.04836 30.9281 28.9753 -4.83363 30.6903 29.4224 -5.39245 30.4941 29.0358 
-0.97783 30.5619 28.5557 -0.553957 30.6271 27.8537 -6.02907 30.8993 27.9762 
-5.82535 30.6771 28.4053 -6.39721 30.4852 28.0365 -0.295039 30.7317 26.7605 
-7.37676 30.9608 26.7876 -6.90071 30.6563 27.4771 -8.24459 30.7096 26.6891 
-7.69637 30.3885 27.3808 -8.4251 30.3527 27.1041 -0.0850432 30.8818 26.0986 
0.079716 30.278 26.5471 0.337657 30.5068 25.8555 -8.09884 31.1207 26.0797 
-8.97024 30.533 26.5928 -9.16778 30.9486 25.8785 -10.0372 30.727 25.7069 
-9.94104 30.301 26.4502 -10.5358 30.2937 25.9413 0.52936 30.4706 24.9636 
-9.89845 31.0572 25.206 -10.5425 30.6007 25.1942 0.385298 30.2284 24.112 
-5.13314 30.7639 23.9206 -4.58489 30.5669 23.8645 -5.07129 30.1688 24.4945 
-5.58704 30.3284 24.0586 -11.1783 31.0618 23.8095 -10.9038 30.7455 24.4188 
-11.3965 30.3644 24.0188 -0.000774855 30.7529 23.509 -0.532988 30.3691 22.9071 
-4.53644 30.3505 22.9802 -5.97427 30.5662 23.5577 -6.68394 30.3431 23.0258 
-11.5642 30.3346 23.102 -0.976302 30.5225 22.3487 -1.04227 30.8907 21.6796 
-1.32316 30.2131 22.0098 -4.90682 30.5362 22.3166 -5.07198 31.0479 21.802 
-5.3064 30.4004 21.8263 -7.15802 30.5055 22.6253 -8.03281 30.7563 22.2883 
-8.83801 30.8959 21.9563 -8.56429 30.1255 21.9108 -10.9577 31.1864 21.8044 
-11.4573 30.4919 22.1048 -1.04305 31.0816 21.0759 -1.53157 30.4046 21.2585 
-5.66541 30.3418 20.9931 -9.29343 30.6722 21.5908 -10.0125 30.4114 21.218 
-10.9108 30.5626 21.348 -1.85239 30.7165 20.4623 -2.24109 30.9186 19.6614 
-2.55298 30.1282 20.1675 -6.00874 30.5925 20.316 -6.14206 31.1108 19.8139 
-6.36058 30.4332 19.8279 -2.34004 31.2342 18.7633 -2.98867 30.42 19.4868 
-3.02726 30.7702 18.8781 -3.42488 30.2263 18.9328 -6.6143 30.4712 18.973 
[...]
CELL_DATA 7376
SCALARS scalars float
LOOKUP_TABLE default
1002 1002 1002 1002 1002 1002 1002 1002 1002 
1002 1002 1002 1002 1002 1002 1002 1002 1002 
1002 1002 1002 1002 1002 1002 1002 1002 1002 
1002 1002 1002 1002 1002 1002 1002 1002 1002 
1002 1002 1002 1002 1002 1002 1002 1002 1002 
1002 1002 1002 1002 1002 1002 1002 1002 1002 
1002 1002 1002 1002 1002 1002 1002 1002 1002 
1002 1002 1002 1002 1002 1002 1002 1002 1002 
1002 1002 1002 1002 1002 1002 1002 1002 1002 
1002 1002 1002 1002 1002 1002 1002 1002 1002 
1002 1002 1002 1002 1002 1002 1002 1002 1002 
1002 1002 1002 1002 1002 1002 1002 1002 1002 
1002 1002 1002 1002 1002 1002 1002 1002 1002 
1002 1002 1002 1002 1002 1002 1002 1002 1002 
1002 1002 1002 1002 1002 1002 1002 1002 1002 
1002 1002 1002 1002 1002 1002 1002 1002 1002 
1002 1002 1002 1002 1002 1002 1002 1002 1002 
1002 1002 1002 1002 1002 1002 1002 1002 1002 
1002 1002 1002 1002 1002 1002 1002 1002 1002 
1002 1002 1002 1002 1002 1002 1002 1002 1002 
1002 1002 1002 1002 1002 1002 1002 1002 1002 
1002 1002 1002 1002 1002 1002 1002 1002 1002 
1002 1002 1002 1002 1002 1002 1002 1002 1002 
1002 1002 1002 1002 1002 1002 1002 1002 1002 
1002 1002 1002 1002 1002 1002 1002 1002 1002 
1002 1002 1002 1002 1002 1002 1002 1002 1002 
1002 1002 1002 1002 1002 1002 1002 1002 1002 
1002 1002 1002 1002 1002 1002 1002 1002 1002 
1002 1002 1002 1002 1002 1002 1002 1002 1002 
1002 1002 1002 1002 1002 1002 1002 1002 1002 
1002 1002 1002 1002 1002 1002 1002 1002 1002 
1002 1002 1002 1002 1002 1002 1002 1002 1002 
1002 1002 1002 1002 1002 1002 1002 1002 1002 
1002 1002 1002 1002 1002 1002 1002 1002 1002 
1002 1002 1002 1002 1002 1002 1002 1002 1002 
1002 1002 1002 1002 1002 1002 1002 1002 1002 
1002 1002 1002 1002 1002 1002 1002 1002 1002 
1002 1002 1002 1002 1002 1002 1002 1002 1002 
1002 1002 1002 1002 1002 1002 1002 1002 1002 
1002 1002 1002 1002 1002 1002 1002 1002 1002 
1002 1002 1002 1002 1002 1002 1002 1002 1002 
1002 1002 1002 1002 1002 1002 1002 1002 1002 
1002 1002 1002 1002 1002 1002 1002 1002 1002 
1002 1002 1002 1002 1002 1002 1002 1002 1002 
1002 1002 1002 1002 1002 1002 1002 1002 1002 
1002 1002 1002 1002 1002 1002 1002 1002 1002 
1002 1002 1002 1002 1002 1002 1002 1002 1002 
1002 1002 1002 1002 1002 1002 1002 1002 1002 
1002 1002 1002 1002 1002 1002 1002 1002 1002 
1002 1002 1002 1002 1002 1002 1002 1002 1002 
1002 1002 1002 1002 1002 1002 1002 1002 1002 
1002 1002 1002 1002 1002 1002 1002 1002 1002 
1002 1002 1002 1002 1002 1002 1002 1002 1002 
1002 1002 1002 1002 1002 1002 1002 1002 1002 
1002 1002 1002 1002 1002 1002 1002 1002 1002 
1002 1002 1002 1002 1002 1002 1002 1002 1002 
1002 1002 1002 1002 1002 1002 1002 1002 1002 
1002 1002 1002 1002 1002 1002 1002 1002 1002 
1002 1002 1002 1002 1002 1002 1002 1002 1002 
1002 1002 1002 1002 1002 1002 1002 1002 1002 
1002 1002 1002 1002 1002 1002 1002 1002 1002 
1002 1002 1002 1002 1002 1002 1002 1002 1002 
1002 1002 1002 1002 1002 1002 1002 1002 1002 
1002 1002 1002 1002 1002 1002 1002 1002 1002 
1002 1002 1002 1002 1002 1002 1002 1002 1002 
1002 1002 1002 1002 1002 1002 1002 1002 1002 
1002 1002 1002 1002 1002 1002 1002 1002 1002 
1002 1002 1002 1002 1002 1002 1002 1002 1002 
1002 1002 1002 1002 1002 1002 1002 1002 1002 
1002 1002 1002 1002 1002 1002 1002 1002 1002 
1002 1002 1002 1002 1002 1002 1002 1002 1002 
1002 1002 1002 1002 1002 1002 1002 1002 1002 
1002 1002 1002 1002 1002 1002 1002 1002 1002 
1002 1002 1002 1002 1002 1002 1002 1002 1002 
1002 1002 1002 1002 1002 1002 1002 1002 1002 
1002 1002 1002 1002 1002 1002 1002 1002 1002 
1002 1002 1002 1002 1002 1002 1002 1002 1002 
1002 1002 1002 1002 1002 1002 1002 1002 1002 
1002 1002 1002 1002 1002 1002 1002 1002 1002 
1002 1002 1002 1002 1002 1002 1002 1002 1002 
1002 1002 1002 1002 1002 1002 1002 1002 1002 
1002 1002 1002 1002 1002 1002 1002 1002 1002 
1002 1002 1002 1002 1002 1002 1002 1002 1002 
1002 1002 1002 1002 1002 1002 1002 1002 1002 
1002 1002 1002 1002 1002 1002 1002 1002 1002 
1002 1002 1002 1002 1002 1002 1002 1002 1002 
1002 1002 1002 1002 1002 1002 1002 1002 1002 
1002 1002 1002 1002 1002 1002 1002 1002 1002 
1002 1002 1002 1002 1002 1002 1002 1002 1002 
1002 1002 1002 1002 1002 1002 1002 1002 1002 
1002 1002 1002 1002 1002 1002 1002 1002 1002 
1002 1002 1002 1002 1002 1002 1002 1002 1002 
1002 1002 1002 1002 1002 1002 1002 1002 1002 
1002 1002 1002 1002 1002 1002 1002 1002 1002 
1002 1002 1002 1002 1002 1002 1002 1002 1002 
1002 1002 1002 1002 1002 1002 1002 1002 1002 
1002 1002 1002 1002 1002 1002 1002 1002 1002 
1002 1002 1002 1002 1002 1002 1002 1002 1002 
1002 1002 1002 1002 1002 1002 1002 1002 1002 
1002 1002 1002 1002 1002 1002 1002 1002 1002 
1002 1002 1002 1002 1002 1002 1002 1002 1002 
1002 1002 1002 1002 1002 1002 1002 1002 1002 
1002 1002 1002 1002 1002 1002 1002 1002 1002 
1002 1002 1002 1002 1002 1002 1002 1002 1002 
1002 1002 1002 1002 1002 1002 1002 1002 1002 
1002 1002 1002 1002 1002 1002 1002 1002 1002 
1002 1002 1002 1002 1002 1002 1002 1002 1002 
1002 1002 1002 1002 1002 1002 1002 1002 1002 
1002 1002 1002 1002 1002 1002 1002 1002 1002 
1002 1002 1002 1002 1002 1002 1002 1002 1002 
1002 1002 1002 1002 1002 1002 1002 1002 1002 
1002 1002 1002 1002 1002 1002 1002 1002 1002 
1002 1002 1002 1002 1002 1002 1002 1002 1002 
1002 1002 1002 1002 1002 1002 1002 1002 1002 
1002 1002 1002 1002 1002 1002 1002 1002 1002 
1002 1002 1002 1002 1002 1002 1002 1002 1002 
1002 1002 1002 1002 1002 1002 1002 1002 1002 
1002 1002 1002 1002 1002 1002 1002 1002 1002 
1002 1002 1002 1002 1002 1002 1002 1002 1002 
1002 1002 1002 1002 1002 1002 1002 1002 1002 
1002 1002 1002 1002 1002 1002 1002 1002 1002 
1002 1002 1002 1002 1002 1002 1002 1002 1002 
1002 1002 1002 1002 1002 1002 1002 1002 1002 
1002 1002 1002 1002 1002 1002 1002 1002 1002 
1002 1002 1002 1002 1002 1002 1002 1002 1002 
1002 1002 1002 1002 1002 1002 1002 1002 1002 
1002 1002 1002 1002 1002 1002 1002 1002 1002 
1002 1002 1002 1002 1002 1002 1002 1002 1002 
1002 1002 1002 1002 1002 1002 1002 1002 1002 
1002 1002 1002 1002 1002 1002 1002 1002 1002 
1002 1002 1002 1002 1002 1002 1002 1002 1002 
1002 1002 1002 1002 1002 1002 1002 1002 1002 
1002 1002 1002 1002 1002 1002 1002 1002 1002 
1002 1002 1002 1002 1002 1002 1002 1002 1002 
1002 1002 1002 1002 1002 1002 1002 1002 1002 
1002 1002 1002 1002 1002 1002 1002 1002 1002 
1002 1002 1002 1002 1002 1002 1002 1002 1002 
1002 1002 1002 1002 1002 1002 1002 1002 1002 
1002 1002 1002 1002 1002 1002 1002 1002 1002 
1002 1002 1002 1002 1002 1002 1002 1002 1002 
1002 1002 1002 1002 1002 1002 1002 1002 1002 
1002 1002 1002 1002 1002 1002 1002 1002 1002 
1002 1002 1002 1002 1002 1002 1002 1002 1002 
1002 1002 1002 1002 1002 1002 1002 1002 1002 
1002 1002 1002 1002 1002 1002 1002 1002 1002 
1002 1002 1002 1002 1002 1002 1002 1002 1002 
1002 1002 1002 1002 1002 1002 1002 1002 1002 
1002 1002 1002 1002 1002 1002 1002 1002 1002 
1002 1002 1002 1002 1002 1002 1002 1002 1002 
1002 1002 1002 1002 1002 1002 1002 1002 1002 
1002 1002 1002 1002 1002 1002 1002 1002 1002 
1002 1002 1002 1002 1002 1002 1002 1002 1002 
1002 1002 1002 1002 1002 1002 1002 1002 1002 
1002 1002 1002 1002 1002 1002 1002 1002 1002 
1002 1002 1002 1002 1002 1002 1002 1002 1002 
1002 1002 1002 1002 1002 1002 1002 1002 1002 
1002 1002 1002 1002 1002 1002 1002 1002 1002 
1002 1002 1002 1002 1002 1002 1002 1002 1002 
1002 1002 1002 1002 1002 1002 1002 1002 1002 
1002 1002 1002 1002 1002 1002 1002 1002 1002 
1002 1002 1002 1002 1002 1002 1002 1002 1002 
1002 1002 1002 1002 1002 1002 1002 1002 1002 
1002 1002 1002 1002 1002 1002 1002 1002 1002 
1002 1002 1002 1002 1002 1002 1002 1002 1002 
1002 1002 1002 1002 1002 1002 1002 1002 1002 
1002 1002 1002 1002 1002 1002 1002 1002 1002 
1002 1002 1002 1002 1002 1002 1002 1002 1002 
1002 1002 1002 1002 1002 1002 1002 1002 1002 
1002 1002 1002 1002 1002 1002 1002 1002 1002 
1002 1002 1002 1002 1002 1002 1002 1002 1002 
1002 1002 1002 1002 1002 1002 1002 1002 1002 
1002 1002 1002 1002 1002 1002 1002 1002 1002 
1002 1002 1002 1002 1002 1002 1002 1002 1002 
1002 1002 1002 1002 1002 1002 1002 1002 1002 
1002 1002 1002 1002 1002 1002 1002 1002 1002 
1002 1002 1002 1002 1002 1002 1002 1002 1002 
1002 1002 1002 1002 1002 1002 1002 1002 1002 
1002 1002 1002 1002 1002 1002 1002 1002 1002 
1002 1002 1002 1002 1002 1002 1002 1002 1002 
1002 1002 1002 1002 1002 1002 1002 1002 1002 
1002 1002 1002 1002 1002 1002 1002 1002 1002 
1002 1002 1002 1002 1002 1002 1002 1002 1002 
1002 1002 1002 1002 1002 1002 1002 1002 1002 
1002 1002 1002 1002 1002 1002 1002 1002 1002 
1002 1002 1002 1002 1002 1002 1002 1002 1002 
1002 1002 1002 1002 1002 1002 1002 1002 1002 
1002 1002 1002 1002 1002 1002 1002 1002 1002 
1002 1002 1002 1002 1002 1002 1002 1002 1002 
1002 1002 1002 1002 1002 1002 1002 1002 1002 
1002 1002 1002 1002 1002 1002 1002 1002 1002 
1002 1002 1002 1002 1002 1002 1002 1002 1002 
1002 1002 1002 1002 1002 1002 1002 1002 1002 
1002 1002 1002 1002 1002 1002 1002 1002 1002 
1002 1002 1002 1002 1002 1002 1002 1002 1002 
1002 1002 1002 1002 1002 1002 1002 1002 1002 
1002 1002 1002 1002 1002 1002 1002 1002 1002 
1002 1002 1002 1002 1002 1002 1002 1002 1002 
1002 1002 1002 1002 1002 1002 1002 1002 1002 
1002 1002 1002 1002 1002 1002 1002 1002 1002 
1002 1002 1002 1002 1002 1002 1002 1002 1002 
1002 1002 1002 1002 1002 1002 1002 1002 1002 
1002 1002 1002 1002 1002 1002 1002 1002 1002 
1002 1002 1002 1002 1002 1002 1002 1002 1002 
1002 1002 1002 1002 1002 1002 1002 1002 1002 
1002 1002 1002 1002 1002 1002 1002 1002 1002 
1002 1002 1002 1002 1002 1002 1002 1002 1002 
1002 1002 1002 1002 1002 1002 1002 1002 1002 
1002 1002 1002 1002 1002 1002 1002 1002 1002 
1002 1002 1002 1002 1002 1002 1002 1002 1002 
1002 1002 1002 1002 1002 1002 1002 1002 1002 
1002 1002 1002 1002 1002 1002 1002 1002 1002 
1002 1002 1002 1002 1002 1002 1002 1002 1002 
1002 1002 1002 1002 1002 1002 1002 1002 1002 
1002 1002 1002 1002 1002 1002 1002 1002 1002 
1002 1002 1002 1002 1002 1002 1002 1002 1002 
1002 1002 1002 1002 1002 1002 1002 1002 1002 
1002 1002 1002 1002 1002 1002 1002 1002 1002 
1002 1002 1002 1002 1002 1002 1002 1002 1002 
1002 1002 1002 1002 1002 1002 1002 1002 1002 
1002 1002 1002 1002 1002 1002 1002 1002 1002 
1002 1002 1002 1002 1002 1002 1002 1002 1002 
1002 1002 1002 1002 1002 1002 1002 1002 1002 
1002 1002 1002 1002 1002 1002 1002 1002 1002 
1002 1002 1002 1002 1002 1002 1002 1002 1002 
1002 1002 1002 1002 1002 1002 1002 1002 1002 
1002 1002 1002 1002 1002 1002 1002 1002 1002 
1002 1002 1002 1002 1002 1002 1002 1002 1002 
1002 1002 1002 1002 1002 1002 1002 1002 1002 
1002 1002 1002 1002 1002 1002 1002 1002 1002 
1002 1002 1002 1002 1002 1002 1002 1002 1002 
1002 1002 1002 1002 1002 1002 1002 1002 1002 
1002 1002 1002 1002 1002 1002 1002 1002 1002 
1002 1002 1002 1002 1002 1002 1002 1002 1002 
1002 1002 1002 1002 1002 1002 1002 1002 1002 
1002 1002 1002 1002 1002 1002 1002 1002 1002 
1002 1002 1002 1002 1002 1002 1002 1002 1002 
1002 1002 1002 1002 1002 1002 1002 1002 1002 
1002 1002 1002 1002 1002 1002 1002 1002 1002 
1002 1002 1002 1002 1002 1002 1002 1002 1002 
1002 1002 1002 1002 1002 1002 1002 1002 1002 
1002 1002 1002 1002 1002 1002 1002 1002 1002 
1002 1002 1002 1002 1002 1002 1002 1002 1002 
1002 1002 1002 1002 1002 1002 1002 1002 1002 
1002 1002 1002 1002 1002 1002 1002 1002 1002 
1002 1002 1002 1002 1002 1002 1002 1002 1002 
1002 1002 1002 1002 1002 1002 1002 1002 1002 
1002 1002 1002 1002 1002 1002 1002 1002 1002 
1002 1002 1002 1002 1002 1002 1002 1002 1002 
1002 1002 1002 1002 1002 1002 1002 1002 1002 
1002 1002 1002 1002 1002 1002 1002 1002 1002 
1002 1002 1002 1002 1002 1002 1002 1002 1002 
1002 1002 1002 1002 1002 1002 1002 1002 1002 
1002 1002 1002 1002 1002 1002 1002 1002 1002 
1002 1002 1002 1002 1002 1002 1002 1002 1002 
1002 1002 1002 1002 1002 1002 1002 1002 1002 
1002 1002 1002 1002 1002 1002 1002 1002 1002 
1002 1002 1002 1002 1002 1002 1002 1002 1002 
1002 1002 1002 1002 1002 1002 1002 1002 1002 
1002 1002 1002 1002 1002 1002 1002 1002 1002 
1002 1002 1002 1002 1002 1002 1002 1002 1002 
1002 1002 1002 1002 1002 1002 1002 1002 1002 
1002 1002 1002 1002 1002 1002 1002 1002 1002 
1002 1002 1002 1002 1002 1002 1002 1002 1002 
1002 1002 1002 1002 1002 1002 1002 1002 1002 
1002 1002 1002 1002 1002 1002 1002 1002 1002 
1002 1002 1002 1002 1002 1002 1002 1002 1002 
1002 1002 1002 1002 1002 1002 1002 1002 1002 
1002 1002 1002 1002 1002 1002 1002 1002 1002 
1002 1002 1002 1002 1002 1002 1002 1002 1002 
1002 1002 1002 1002 1002 1002 1002 1002 1002 
1002 1002 1002 1002 1002 1002 1002 1002 1002 
1002 1002 1002 1002 1002 1002 1002 1002 1002 
1002 1002 1002 1002 1002 1002 1002 1002 1002 
1002 1002 1002 1002 1002 1002 1002 1002 1002 
1002 1002 1002 1002 1002 1002 1002 1002 1002 
1002 1002 1002 1002 1002 1002 1002 1002 1002 
1002 1002 1002 1002 1002 1002 1002 1002 1002 
1002 1002 1002 1002 1002 1002 1002 1002 1002 
1002 1002 1002 1002 1002 1002 1002 1002 1002 
1002 1002 1002 1002 1002 1002 1002 1002 1002 
1002 1002 1002 1002 1002 1002 1002 1002 1002 
1002 1002 1002 1002 1002 1002 1002 1002 1002 
1002 1002 1002 1002 1002 1002 1002 1002 1002 
1002 1002 1002 1002 1002 1002 1002 1002 1002 
1002 1002 1002 1002 1002 1002 1002 1002 1002 
1002 1002 1002 1002 1002 1002 1002 1002 1002 
1002 1002 1002 1002 1002 1002 1002 1002 1002 
1002 1002 1002 1002 1002 1002 1002 1002 1002 
1002 1002 1002 1002 1002 1002 1002 1002 1002 
1002 1002 1002 1002 1002 1002 1002 1002 1002 
1002 1002 1002 1002 1002 1002 1002 1002 1002 
1002 1002 1002 1002 1002 1002 1002 1002 1002 
1002 1002 1002 1002 1002 1002 1002 1002 1002 
1002 1002 1002 1002 1002 1002 1002 1002 1002 
1002 1002 1002 1002 1002 1002 1002 1002 1002 
1002 1002 1002 1002 1002 1002 1002 1002 1002 
1002 1002 1002 1002 1002 1002 1002 1002 1002 
1002 1002 1002 1002 1002 1002 1002 1002 1002 
1002 1002 1002 1002 1002 1002 1002 1002 1002 
1002 1002 1002 1002 1002 1002 1002 1002 1002 
1002 1002 1002 1002 1002 1002 1002 1002 1002 
1002 1002 1002 1002 1002 1002 1002 1002 1002 
1002 1002 1002 1002 1002 1002 1002 1002 1002 
1002 1002 1002 1002 1002 1002 1002 1002 1002 
1002 1002 1002 1002 1002 1002 1002 1002 1002 
1002 1002 1002 1002 1002 1002 1002 1002 1002 
1002 1002 1002 1002 1002 1002 1002 1002 1002 
1002 1002 1002 1002 1002 1002 1002 1002 1002 
1002 1002 1002 1002 1002 1002 1002 1002 1002 
1002 1002 1002 1002 1002 1002 1002 1002 1002 
1002 1002 1002 1002 1002 1002 1002 1002 1002 
1002 1002 1002 1002 1002 1002 1002 1002 1002 
1002 1002 1002 1002 1002 1002 1002 1002 1002 
1002 1002 1002 1002 1002 1002 1002 1002 1002 
1002 1002 1002 1002 1002 1002 1002 1002 1002 
1002 1002 1002 1002 1002 1002 1002 1002 1002 
1002 1002 1002 1002 1002 1002 1002 1002 1002 
1002 1002 1002 1002 1002 1002 1002 1002 1002 
1002 1002 1002 1002 1002 1002 1002 1002 1002 
1002 1002 1002 1002 1002 1002 1002 1002 1002 
1002 1002 1002 1002 1002 1002 1002 1002 1002 
1002 1002 1002 1002 1002 1002 1002 1002 1002 
1002 1002 1002 1002 1002 1002 1002 1002 1002 
1002 1002 1002 1002 1002 1002 1002 1002 1002 
1002 1002 1002 1002 1002 1002 1002 1002 1002 
1002 1002 1002 1002 1002 1002 1002 1002 1002 
1002 1002 1002 1002 1002 1002 1002 1002 1002 
1002 1002 1002 1002 1002 1002 1002 1002 1002 
1002 1002 1002 1002 1002 1002 1002 1002 1002 
1002 1002 1002 1002 1002 1002 1002 1002 1002 
1002 1002 1002 1002 1002 1002 1002 1002 1002 
1002 1002 1002 1002 1002 1002 1002 1002 1002 
1002 1002 1002 1002 1002 1002 1002 1002 1002 
1002 1002 1002 1002 1002 1002 1002 1002 1002 
1002 1002 1002 1002 1002 1002 1002 1002 1002 
1002 1002 1002 1002 1002 1002 1002 1002 1002 
1002 1002 1002 1002 1002 1002 1002 1002 1002 
1002 1002 1002 1002 1002 1002 1002 1002 1002 
1002 1002 1002 1002 1002 1002 1002 1002 1002 
1002 1002 1002 1002 1002 1002 1002 1002 1002 
1002 1002 1002 1002 1002 1002 1002 1002 1002 
1002 1002 1002 1002 1002 1002 1002 1002 1002 
1002 1002 1002 1002 1002 1002 1002 1002 1002 
1002 1002 1002 1002 1002 1002 1002 1002 1002 
1002 1002 1002 1002 1002 1002 1002 1002 1002 
1002 1002 1002 1002 1002 1002 1002 1002 1002 
1002 1002 1002 1002 1002 1002 1002 1002 1002 
1002 1002 1002 1002 1002 1002 1002 1002 1002 
1002 1002 1002 1002 1002 1002 1002 1002 1002 
1002 1002 1002 1002 1002 1002 1002 1002 1002 
1002 1002 1002 1002 1002 1002 1002 1002 1002 
1002 1002 1002 1002 1002 1002 1002 1002 1002 
1002 1002 1002 1002 1002 1002 1002 1002 1002 
1002 1002 1002 1002 1002 1002 1002 1002 1002 
1002 1002 1002 1002 1002 1002 1002 1002 1002 
1002 1002 1002 1002 1002 1002 1002 1002 1002 
1002 1002 1002 1002 1002 1002 1002 1002 1002 
1002 1002 1002 1002 1002 1002 1002 1002 1002 
1002 1002 1002 1002 1002 1002 1002 1002 1002 
1002 1002 1002 1002 1002 1002 1002 1002 1002 
1002 1002 1002 1002 1002 1002 1002 1002 1002 
1002 1002 1002 1002 1002 1002 1002 1002 1002 
1002 1002 1002 1002 1002 1002 1002 1002 1002 
1002 1002 1002 1002 1002 1002 1002 1002 1002 
1002 1002 1002 1002 1002 1002 1002 1002 1002 
1002 1002 1002 1002 1002 1002 1002 1002 1002 
1002 1002 1002 1002 1002 1002 1002 1002 1002 
1002 1002 1002 1002 1002 1002 1002 1002 1002 
1002 1002 1002 1002 1002 1002 1002 1002 1002 
1002 1002 1002 1002 1002 1002 1002 1002 1002 
1002 1002 1002 1002 1002 1002 1002 1002 1002 
1002 1002 1002 1002 1002 1002 1002 1002 1002 
1002 1002 1002 1002 1002 1002 1002 1002 1002 
1002 1002 1002 1002 1002 1002 1002 1002 1002 
1002 1002 1002 1002 1002 1002 1002 1002 1002 
1002 1002 1002 1002 1002 1002 1002 1002 1002 
1002 1002 1002 1002 1002 1002 1002 1002 1002 
1002 1002 1002 1002 1002 1002 1002 1002 1002 
1002 1002 1002 1002 1002 1002 1002 1002 1002 
1002 1002 1002 1002 1002 1002 1002 1002 1002 
1002 1002 1002 1002 1002 1002 1002 1002 1002 
1002 1002 1002 1002 1002 1002 1002 1002 1002 
1002 1002 1002 1002 1002 1002 1002 1002 1002 
1002 1002 1002 1002 1002 1002 1002 1002 1002 
1002 1002 1002 1002 1002 1002 1002 1002 1002 
1002 1002 1002 1002 1002 1002 1002 1002 1002 
1002 1002 1002 1002 1002 1002 1002 1002 1002 
1002 1002 1002 1002 1002 1002 1002 1002 1002 
1002 1002 1002 1002 1002 1002 1002 1002 1002 
1002 1002 1002 1002 1002 1002 1002 1002 1002 
1002 1002 1002 1002 1002 1002 1002 1002 1002 
1002 1002 1002 1002 1002 1002 1002 1002 1002 
1002 1002 1002 1002 1002 1002 1002 1002 1002 
1002 1002 1002 1002 1002 1002 1002 1002 1002 
1002 1002 1002 1002 1002 1002 1002 1002 1002 
1002 1002 1002 1002 1002 1002 1002 1002 1002 
1002 1002 1002 1002 1002 1002 1002 1002 1002 
1002 1002 1002 1002 1002 1002 1002 1002 1002 
1002 1002 1002 1002 1002 1002 1002 1002 1002 
1002 1002 1002 1002 1002 1002 1002 1002 1002 
1002 1002 1002 1002 1002 1002 1002 1002 1002 
1002 1002 1002 1002 1002 1002 1002 1002 1002 
1002 1002 1002 1002 1002 1002 1002 1002 1002 
1002 1002 1002 1002 1002 1002 1002 1002 1002 
1002 1002 1002 1002 1002 1002 1002 1002 1002 
1002 1002 1002 1002 1002 1002 1002 1002 1002 
1002 1002 1002 1002 1002 1002 1002 1002 1002 
1002 1002 1002 1002 1002 1002 1002 1002 1002 
1002 1002 1002 1002 1002 1002 1002 1002 1002 
1002 1002 1002 1002 1002 1002 1002 1002 1002 
1002 1002 1002 1002 1002 1002 1002 1002 1002 
1002 1002 1002 1002 1002 1002 1002 1002 1002 
1002 1002 1002 1002 1002 1002 1002 1002 1002 
1002 1002 1002 1002 1002 1002 1002 1002 1002 
1002 1002 1002 1002 1002 1002 1002 1002 1002 
1002 1002 1002 1002 1002 1002 1002 1002 1002 
1002 1002 1002 1002 1002 1002 1002 1002 1002 
1002 1002 1002 1002 1002 1002 1002 1002 1002 
1002 1002 1002 1002 1002 1002 1002 1002 1002 
1002 1002 1002 1002 1002 1002 1002 1002 1002 
1002 1002 1002 1002 1002 1002 1002 1002 1002 
1002 1002 1002 1002 1002 1002 1002 1002 1002 
1002 1002 1002 1002 1002 1002 1002 1002 1002 
1002 1002 1002 1002 1002 1002 1002 1002 1002 
1002 1002 1002 1002 1002 1002 1002 1002 1002 
1002 1002 1002 1002 1002 1002 1002 1002 1002 
1002 1002 1002 1002 1002 1002 1002 1002 1002 
1002 1002 1002 1002 1002 1002 1002 1002 1002 
1002 1002 1002 1002 1002 1002 1002 1002 1002 
1002 1002 1002 1002 1002 1002 1002 1002 1002 
1002 1002 1002 1002 1002 1002 1002 1002 1002 
1002 1002 1002 1002 1002 1002 1002 1002 1002 
1002 1002 1002 1002 1002 1002 1002 1002 1002 