# vtk DataFile Version 4.0
vtk output
ASCII
DATASET POLYDATA
POINTS 3602 float
-19.1483 -13.2214 -24.0048 -18.8799 -13.6689 -23.7744 -18.6312 -13.6667 -24.3397 
-19.7441 -13.1944 -24.0808 -19.8455 -13.7187 -23.493 -20.4144 -13.5559 -23.9555 
-19.2451 -13.3648 -24.5116 -20.0508 -13.4382 -24.4097 -20.0279 -14.1646 -23.0106 
-19.8792 -14.8245 -22.724 -19.567 -14.31 -23.0549 -20.5444 -14.4589 -23.0094 
-18.9818 -14.353 -23.3738 -18.4873 -14.4541 -23.9365 -20.8307 -13.9799 -24.3903 
-21.0496 -14.4371 -23.5105 -21.5456 -14.5907 -24.0582 -18.8734 -13.9041 -24.939 
-18.5682 -14.5867 -24.7658 -19.8292 -13.9118 -24.9947 -20.719 -14.2128 -25.1108 
-21.466 -14.6075 -24.9801 -19.2047 -14.5264 -25.3396 -20.2073 -14.611 -25.4866 
-20.8927 -14.6002 -25.4093 -19.1204 -14.8959 -22.9414 -18.9541 -15.5738 -22.592 
-18.5841 -15.2651 -23.2899 -19.8538 -15.5197 -22.3507 -21.063 -14.9362 -23.0032 
-20.7152 -15.3242 -22.5799 -21.445 -15.6728 -22.9176 -18.4989 -15.601 -24.0409 
-22.2085 -15.0108 -24.3697 -21.9732 -15.4111 -23.6278 -22.5949 -15.6351 -23.9385 
-18.9507 -15.5682 -24.7235 -19.028 -15.0791 -25.1822 -19.4744 -15.6736 -25.0494 
-22.1195 -14.8538 -25.0773 -23.0805 -15.6527 -24.3846 -22.6634 -15.1982 -25.1852 
-23.41 -15.6331 -24.9588 -19.8848 -15.3972 -25.438 -21.0706 -15.3574 -25.6578 
-21.9475 -15.1687 -25.7567 -21.7419 -15.6768 -26.0757 -22.3891 -15.426 -25.9517 
-22.8198 -15.7669 -25.6655 -22.0296 -15.5279 -26.2202 -18.2095 -16.257 -22.1374 
-17.8675 -16.6718 -21.4914 -17.6344 -16.8619 -21.9224 -19.2338 -16.0106 -22.0037 
-18.6529 -16.5008 -21.4869 -20.2924 -15.9884 -22.0161 -19.7549 -16.5012 -21.4985 
-21.0415 -16.0007 -22.2029 -20.747 -16.5088 -21.6077 -21.3713 -16.6195 -21.9844 
-17.8631 -16.6159 -22.4385 -18.2888 -16.3668 -23.0187 -21.7011 -16.677 -22.8029 
-29.1105 -16.274 -22.9183 -28.9448 -16.4205 -22.606 -28.6693 -16.5336 -22.8379 
-30.0435 -16.1766 -23.0853 -29.6365 -16.4297 -22.496 -31.2758 -16.0424 -23.1136 
-30.8883 -16.5339 -22.4614 -32.0602 -16.1739 -23.2306 -31.7936 -16.4176 -22.7069 
-32.3032 -16.6864 -22.9979 -18.6547 -16.7261 -23.8061 -22.134 -16.4248 -23.3423 
-23.0006 -16.012 -23.9756 -22.8644 -16.4394 -23.6974 -23.5149 -16.522 -24.0263 
-28.0267 -16.2299 -24.3024 -27.897 -16.5933 -23.6174 -27.7055 -16.5801 -24.0883 
-29.1369 -16.6929 -23.3875 -28.3043 -16.6502 -24.1371 -30.0322 -16.4948 -23.5693 
-30.539 -16.8693 -24.1243 -30.9458 -16.1 -23.8588 -32.1101 -16.0117 -24.0433 
-32.5509 -16.7072 -23.9665 -19.0885 -16.4569 -24.3525 -19.8354 -16.4618 -24.7273 
-20.1061 -16.1261 -25.1124 -20.5812 -16.7001 -24.9583 -23.9535 -15.9566 -25.2021 
-24.0392 -16.3706 -24.4851 -24.9658 -16.1838 -25.1941 -25.0224 -16.5726 -24.633 
-25.815 -16.2995 -25.0742 -25.795 -16.5157 -24.7494 -26.305 -16.8483 -25.1195 
-27.9421 -16.2457 -24.8263 -27.6848 -16.6918 -24.832 -28.2734 -16.5614 -25.0138 
-31.14 -16.4177 -24.5622 -31.4618 -16.6626 -25.3698 -31.9819 -16.0222 -24.9604 
-32.892 -16.3457 -24.638 -32.9358 -16.1034 -25.1191 -33.2804 -16.6871 -25.3582 
-20.9102 -16.4018 -25.3977 -21.8448 -16.2265 -25.8156 -22.1514 -15.7739 -26.0825 
-23.2072 -16.0571 -25.9112 -22.5574 -16.6743 -26.0314 -23.8783 -16.1404 -25.9165 
-24.4846 -16.5567 -26.1438 -25.3764 -16.4264 -25.5984 -25.9628 -16.484 -25.386 
-27.8624 -16.7395 -25.5565 -32.1614 -16.0583 -26.0688 -31.6961 -16.5085 -26.2066 
-32.9323 -16.0347 -26.0543 -33.4081 -16.4485 -25.9495 -23.2551 -16.5925 -26.3702 
-23.7952 -16.5514 -26.3906 -32.0481 -16.1955 -26.7926 -31.6835 -16.7304 -26.7933 
-32.722 -16.1186 -26.9644 -33.3887 -16.6415 -26.9134 -32.0926 -16.5978 -27.5342 
-33.014 -16.5597 -27.6064 -18.2248 -17.067 -20.9708 -18.0663 -17.6845 -20.8078 
-17.6669 -17.2911 -21.2348 -19.2159 -17.0049 -20.9586 -18.7579 -17.5888 -20.5849 
-20.2916 -17.0032 -21.002 -19.7794 -17.4942 -20.4635 -21.0526 -16.9963 -21.1792 
-20.7649 -17.4796 -20.5599 -21.3747 -17.5859 -20.9561 -17.6406 -17.5329 -21.754 
-21.6 -17.5789 -22.042 -29.0154 -16.94 -22.1844 -28.9249 -17.8545 -21.6259 
-28.3332 -17.4091 -22.0961 -30.2409 -16.9655 -21.9588 -30.0065 -17.6169 -21.5953 
-31.1377 -17.1629 -22.0157 -30.8242 -17.5234 -21.6875 -31.5276 -17.8688 -21.9543 
-17.8723 -17.2141 -22.4463 -18.4252 -17.7184 -23.1593 -21.8727 -17.4134 -22.7826 
-22.1205 -17.0825 -23.1741 -22.3551 -17.8471 -23.1121 -28.259 -16.9404 -23.0244 
-27.865 -17.642 -22.3587 -27.6265 -17.4388 -23.1191 -31.8911 -17.1952 -22.4583 
-32.4354 -17.4869 -23.1328 -18.8794 -17.4028 -23.8612 -19.1361 -17.1175 -24.1478 
-19.2175 -17.6657 -24.191 -22.8948 -17.475 -23.4644 -24.1775 -17.1465 -24.0849 
-23.8692 -17.5292 -23.7435 -24.6156 -17.7587 -23.9633 -27.4086 -17.5157 -24.1552 
-28.7682 -17.1281 -24.007 -29.3567 -17.4456 -23.923 -29.8792 -17.241 -23.767 
-30.2631 -17.6233 -24.2374 -32.5315 -17.6897 -23.9025 -19.8094 -17.5554 -24.4679 
-20.721 -17.3487 -24.7461 -21.1471 -17.1446 -25.0918 -21.4383 -17.8696 -25.0294 
-24.8619 -17.2828 -24.2868 -25.858 -17.3183 -24.5318 -26.5781 -17.5716 -24.8863 
-27.3894 -17.2251 -25.2292 -28.6742 -17.2732 -24.862 -29.1408 -17.7069 -24.453 
-30.9437 -16.999 -24.7967 -30.6102 -17.4874 -24.6917 -32.9554 -16.8726 -24.9175 
-32.6821 -17.6638 -24.8259 -21.8993 -17.3891 -25.5585 -22.583 -17.6139 -26.0127 
-25.1941 -16.7882 -26.3234 -26.079 -16.8543 -25.901 -26.8435 -17.3175 -25.4367 
-26.9877 -17.1302 -26.2007 -27.7629 -17.2028 -26.2199 -28.432 -17.3379 -25.7313 
-30.0784 -17.3492 -26.2639 -29.8744 -17.6365 -25.7924 -29.5232 -17.6701 -26.4243 
-30.9586 -17.5269 -25.347 -30.3812 -17.6464 -25.9312 -31.3204 -17.3164 -26.2291 
-33.0883 -17.383 -25.4534 -33.4189 -17.3592 -26.1087 -23.0715 -17.4452 -26.3857 
-23.9874 -17.3377 -26.6531 -24.7789 -17.1185 -26.8639 -24.6681 -17.6843 -27.0755 
-25.7903 -17.1623 -26.8944 -26.5724 -17.4385 -27.0264 -27.3469 -17.6882 -26.712 
-28.1967 -17.7942 -26.3655 -29.9422 -17.3171 -26.8435 -29.6625 -17.742 -27.2737 
-30.4406 -17.5153 -26.6737 -31.3649 -17.243 -27.1769 -33.6584 -17.6709 -26.8946 
-25.261 -17.6026 -27.3651 -26.1224 -17.7561 -27.4589 -30.1284 -17.5442 -27.3158 
-30.9483 -17.5086 -27.6127 -30.5122 -17.7202 -28.3134 -31.2141 -17.1231 -27.9651 
-31.7762 -16.9995 -28.3607 -32.7145 -16.9944 -28.109 -33.4872 -17.2667 -27.7511 
-30.9982 -17.2585 -28.8019 -30.6324 -17.7611 -29.1586 -31.5525 -17.3816 -28.9703 
-32.3366 -17.6401 -28.6848 -33.2521 -17.7319 -28.3801 -31.168 -17.7565 -29.3618 
-18.222 -18.2997 -20.0916 -18.0145 -18.7858 -19.7103 -17.6873 -18.7369 -20.3008 
-19.1478 -18.0298 -20.0861 -18.9485 -18.5887 -19.6328 -20.2909 -17.9747 -19.9802 
-19.864 -18.481 -19.6384 -21.0563 -17.9966 -20.1128 -20.7409 -18.6874 -19.4864 
-21.352 -18.6341 -19.9219 -17.9178 -17.98 -21.3266 -17.9208 -18.4521 -20.5158 
-18.2636 -18.4255 -20.9242 -21.4959 -18.4927 -21.0318 -17.9953 -17.9011 -22.1067 
-18.2885 -18.4383 -22.0605 -21.6499 -18.6944 -21.7976 -28.082 -17.9463 -21.8676 
-28.039 -18.7278 -21.626 -27.5252 -18.352 -22.3006 -29.1793 -18.6838 -21.4636 
-30.0297 -18.5098 -21.4707 -30.9176 -18.2928 -21.5994 -31.5877 -18.85 -21.9684 
-18.444 -18.7399 -22.9128 -22.0501 -18.4547 -22.4814 -22.5959 -18.6002 -23.0042 
-27.264 -18.3074 -23.2185 -32.0909 -18.2888 -22.4806 -32.3853 -18.5071 -23.1889 
-18.8612 -17.9476 -23.9566 -18.6859 -18.6431 -23.7371 -22.9624 -18.3301 -23.3364 
-23.8583 -18.5379 -23.479 -25.3676 -18.0291 -24.0577 -24.7809 -18.4031 -23.7116 
-26.3488 -18.131 -24.2249 -25.7327 -18.7851 -23.5806 -27.0109 -18.1996 -23.9793 
-26.673 -18.647 -23.4624 -29.7287 -17.8744 -24.2959 -32.482 -18.5243 -24.0662 
-19.2144 -18.2628 -24.3008 -19.9668 -18.6364 -24.428 -20.9554 -18.4155 -24.6613 
-21.6675 -18.6329 -24.9672 -27.0025 -17.8013 -24.7387 -29.1758 -17.8892 -25.0966 
-30.1563 -17.899 -25.1677 -32.6501 -18.7167 -24.8183 -22.1105 -18.4787 -25.3253 
-22.8391 -18.4862 -25.7374 -23.0959 -18.1347 -26.1453 -23.5548 -18.7465 -26.021 
-29.1224 -17.8759 -25.8722 -30.815 -17.8015 -26.0672 -33.105 -18.4449 -25.5066 
-33.6089 -18.4589 -26.1454 -23.8843 -18.4222 -26.4106 -24.8046 -18.4918 -26.8026 
-25.1198 -18.132 -27.2403 -25.5463 -18.7242 -27.1026 -26.8189 -17.9234 -27.2434 
-27.3711 -18.4575 -26.9256 -28.0791 -18.4564 -26.5747 -28.8351 -18.2959 -26.4665 
-29.3101 -18.477 -26.9487 -30.7503 -17.6965 -27.1802 -34.086 -18.6525 -26.5548 
-34.0189 -18.0547 -27.4021 -34.5126 -18.6622 -27.0603 -25.8008 -18.286 -27.4657 
-26.6521 -18.4499 -27.3811 -30.0139 -17.9246 -27.8472 -29.6544 -18.6097 -27.7437 
-33.8998 -17.9522 -28.0817 -34.5299 -18.6864 -27.9791 -30.1131 -18.6209 -28.3638 
-30.5376 -18.4646 -28.9694 -31.8189 -17.9157 -29.1865 -32.2374 -18.3731 -29.0327 
-32.8519 -18.6901 -28.8295 -33.889 -18.5013 -28.6016 -30.917 -18.2993 -29.4131 
-31.6125 -18.4623 -29.3498 -21.1372 -19.1562 -19.0726 -21.0748 -19.5498 -18.8318 
-20.8079 -19.3989 -18.9956 -21.2462 -19.4836 -19.2942 -17.8705 -19.5111 -19.4008 
-17.5103 -19.4781 -19.9047 -18.6761 -19.3217 -19.3424 -20.1122 -19.5657 -19.3526 
-21.3692 -19.5665 -20.3048 -17.8403 -18.8927 -20.8706 -17.5799 -19.6714 -20.8349 
-21.5905 -19.5134 -21.192 -17.9989 -19.3989 -21.3905 -18.3135 -19.4078 -22.0786 
-21.9878 -19.6142 -21.6972 -21.9112 -19.0323 -22.0444 -22.4225 -19.5088 -22.0704 
-27.0117 -19.0439 -22.1262 -26.9021 -19.6814 -21.6937 -26.4076 -19.4821 -22.1831 
-27.814 -19.6906 -21.3424 -28.9369 -19.4862 -21.3567 -29.8724 -19.3207 -21.4785 
-30.829 -19.364 -21.6589 -31.4576 -19.5229 -21.9875 -18.5952 -19.6006 -22.9803 
-23.2937 -18.9949 -23.0961 -22.8314 -19.2596 -22.5654 -24.076 -19.2677 -23.186 
-23.8869 -19.7818 -22.5735 -24.5642 -19.7591 -22.9921 -26.3186 -19.1604 -22.8261 
-26.0062 -19.57 -22.5335 -25.6345 -19.5256 -22.9655 -26.9846 -18.8235 -22.7509 
-31.8456 -19.4535 -22.5114 -32.3013 -19.2762 -23.3057 -19.0475 -19.4985 -23.581 
-19.2738 -18.9498 -24.0986 -19.8411 -19.6346 -23.7883 -20.0113 -19.1967 -24.1501 
-20.5267 -19.6867 -23.9871 -24.8634 -19.2579 -23.3581 -32.5581 -19.5066 -23.951 
-20.9081 -19.4028 -24.3682 -21.8612 -19.4604 -24.7264 -22.1619 -19.1238 -25.1002 
-22.5658 -19.7235 -25.0019 -33.0558 -19.6421 -24.5623 -32.9179 -19.0208 -25.1069 
[...]
CELL_DATA 7220
SCALARS scalars float
LOOKUP_TABLE default
1016 1016 1016 1016 1016 1016 1016 1016 1016 
1016 1016 1016 1016 1016 1016 1016 1016 1016 
1016 1016 1016 1016 1016 1016 1016 1016 1016 
1016 1016 1016 1016 1016 1016 1016 1016 1016 
1016 1016 1016 1016 1016 1016 1016 1016 1016 
1016 1016 1016 1016 1016 1016 1016 1016 1016 
1016 1016 1016 1016 1016 1016 1016 1016 1016 
1016 1016 1016 1016 1016 1016 1016 1016 1016 
1016 1016 1016 1016 1016 1016 1016 1016 1016 
1016 1016 1016 1016 1016 1016 1016 1016 1016 
1016 1016 1016 1016 1016 1016 1016 1016 1016 
1016 1016 1016 1016 1016 1016 1016 1016 1016 
1016 1016 1016 1016 1016 1016 1016 1016 1016 
1016 1016 1016 1016 1016 1016 1016 1016 1016 
1016 1016 1016 1016 1016 1016 1016 1016 1016 
1016 1016 1016 1016 1016 1016 1016 1016 1016 
1016 1016 1016 1016 1016 1016 1016 1016 1016 
1016 1016 1016 1016 1016 1016 1016 1016 1016 
1016 1016 1016 1016 1016 1016 1016 1016 1016 
1016 1016 1016 1016 1016 1016 1016 1016 1016 
1016 1016 1016 1016 1016 1016 1016 1016 1016 
1016 1016 1016 1016 1016 1016 1016 1016 1016 
1016 1016 1016 1016 1016 1016 1016 1016 1016 
1016 1016 1016 1016 1016 1016 1016 1016 1016 
1016 1016 1016 1016 1016 1016 1016 1016 1016 
1016 1016 1016 1016 1016 1016 1016 1016 1016 
1016 1016 1016 1016 1016 1016 1016 1016 1016 
1016 1016 1016 1016 1016 1016 1016 1016 1016 
1016 1016 1016 1016 1016 1016 1016 1016 1016 
1016 1016 1016 1016 1016 1016 1016 1016 1016 
1016 1016 1016 1016 1016 1016 1016 1016 1016 
1016 1016 1016 1016 1016 1016 1016 1016 1016 
1016 1016 1016 1016 1016 1016 1016 1016 1016 
1016 1016 1016 1016 1016 1016 1016 1016 1016 
1016 1016 1016 1016 1016 1016 1016 1016 1016 
1016 1016 1016 1016 1016 1016 1016 1016 1016 
1016 1016 1016 1016 1016 1016 1016 1016 1016 
1016 1016 1016 1016 1016 1016 1016 1016 1016 
1016 1016 1016 1016 1016 1016 1016 1016 1016 
1016 1016 1016 1016 1016 1016 1016 1016 1016 
1016 1016 1016 1016 1016 1016 1016 1016 1016 
1016 1016 1016 1016 1016 1016 1016 1016 1016 
1016 1016 1016 1016 1016 1016 1016 1016 1016 
1016 1016 1016 1016 1016 1016 1016 1016 1016 
1016 1016 1016 1016 1016 1016 1016 1016 1016 
1016 1016 1016 1016 1016 1016 1016 1016 1016 
1016 1016 1016 1016 1016 1016 1016 1016 1016 
1016 1016 1016 1016 1016 1016 1016 1016 1016 
1016 1016 1016 1016 1016 1016 1016 1016 1016 
1016 1016 1016 1016 1016 1016 1016 1016 1016 
1016 1016 1016 1016 1016 1016 1016 1016 1016 
1016 1016 1016 1016 1016 1016 1016 1016 1016 
1016 1016 1016 1016 1016 1016 1016 1016 1016 
1016 1016 1016 1016 1016 1016 1016 1016 1016 
1016 1016 1016 1016 1016 1016 1016 1016 1016 
1016 1016 1016 1016 1016 1016 1016 1016 1016 
1016 1016 1016 1016 1016 1016 1016 1016 1016 
1016 1016 1016 1016 1016 1016 1016 1016 1016 
1016 1016 1016 1016 1016 1016 1016 1016 1016 
1016 1016 1016 1016 1016 1016 1016 1016 1016 
1016 1016 1016 1016 1016 1016 1016 1016 1016 
1016 1016 1016 1016 1016 1016 1016 1016 1016 
1016 1016 1016 1016 1016 1016 1016 1016 1016 
1016 1016 1016 1016 1016 1016 1016 1016 1016 
1016 1016 1016 1016 1016 1016 1016 1016 1016 
1016 1016 1016 1016 1016 1016 1016 1016 1016 
1016 1016 1016 1016 1016 1016 1016 1016 1016 
1016 1016 1016 1016 1016 1016 1016 1016 1016 
1016 1016 1016 1016 1016 1016 1016 1016 1016 
1016 1016 1016 1016 1016 1016 1016 1016 1016 
1016 1016 1016 1016 1016 1016 1016 1016 1016 
1016 1016 1016 1016 1016 1016 1016 1016 1016 
1016 1016 1016 1016 1016 1016 1016 1016 1016 
1016 1016 1016 1016 1016 1016 1016 1016 1016 
1016 1016 1016 1016 1016 1016 1016 1016 1016 
1016 1016 1016 1016 1016 1016 1016 1016 1016 
1016 1016 1016 1016 1016 1016 1016 1016 1016 
1016 1016 1016 1016 1016 1016 1016 1016 1016 
1016 1016 1016 1016 1016 1016 1016 1016 1016 
1016 1016 1016 1016 1016 1016 1016 1016 1016 
1016 1016 1016 1016 1016 1016 1016 1016 1016 
1016 1016 1016 1016 1016 1016 1016 1016 1016 
1016 1016 1016 1016 1016 1016 1016 1016 1016 
1016 1016 1016 1016 1016 1016 1016 1016 1016 
1016 1016 1016 1016 1016 1016 1016 1016 1016 
1016 1016 1016 1016 1016 1016 1016 1016 1016 
1016 1016 1016 1016 1016 1016 1016 1016 1016 
1016 1016 1016 1016 1016 1016 1016 1016 1016 
1016 1016 1016 1016 1016 1016 1016 1016 1016 
1016 1016 1016 1016 1016 1016 1016 1016 1016 
1016 1016 1016 1016 1016 1016 1016 1016 1016 
1016 1016 1016 1016 1016 1016 1016 1016 1016 
1016 1016 1016 1016 1016 1016 1016 1016 1016 
1016 1016 1016 1016 1016 1016 1016 1016 1016 
1016 1016 1016 1016 1016 1016 1016 1016 1016 
1016 1016 1016 1016 1016 1016 1016 1016 1016 
1016 1016 1016 1016 1016 1016 1016 1016 1016 
1016 1016 1016 1016 1016 1016 1016 1016 1016 
1016 1016 1016 1016 1016 1016 1016 1016 1016 
1016 1016 1016 1016 1016 1016 1016 1016 1016 
1016 1016 1016 1016 1016 1016 1016 1016 1016 
1016 1016 1016 1016 1016 1016 1016 1016 1016 
1016 1016 1016 1016 1016 1016 1016 1016 1016 
1016 1016 1016 1016 1016 1016 1016 1016 1016 
1016 1016 1016 1016 1016 1016 1016 1016 1016 
1016 1016 1016 1016 1016 1016 1016 1016 1016 
1016 1016 1016 1016 1016 1016 1016 1016 1016 
1016 1016 1016 1016 1016 1016 1016 1016 1016 
1016 1016 1016 1016 1016 1016 1016 1016 1016 
1016 1016 1016 1016 1016 1016 1016 1016 1016 
1016 1016 1016 1016 1016 1016 1016 1016 1016 
1016 1016 1016 1016 1016 1016 1016 1016 1016 
1016 1016 1016 1016 1016 1016 1016 1016 1016 
1016 1016 1016 1016 1016 1016 1016 1016 1016 
1016 1016 1016 1016 1016 1016 1016 1016 1016 
1016 1016 1016 1016 1016 1016 1016 1016 1016 
1016 1016 1016 1016 1016 1016 1016 1016 1016 
1016 1016 1016 1016 1016 1016 1016 1016 1016 
1016 1016 1016 1016 1016 1016 1016 1016 1016 
1016 1016 1016 1016 1016 1016 1016 1016 1016 
1016 1016 1016 1016 1016 1016 1016 1016 1016 
1016 1016 1016 1016 1016 1016 1016 1016 1016 
1016 1016 1016 1016 1016 1016 1016 1016 1016 
1016 1016 1016 1016 1016 1016 1016 1016 1016 
1016 1016 1016 1016 1016 1016 1016 1016 1016 
1016 1016 1016 1016 1016 1016 1016 1016 1016 
1016 1016 1016 1016 1016 1016 1016 1016 1016 
1016 1016 1016 1016 1016 1016 1016 1016 1016 
1016 1016 1016 1016 1016 1016 1016 1016 1016 
1016 1016 1016 1016 1016 1016 1016 1016 1016 
1016 1016 1016 1016 1016 1016 1016 1016 1016 
1016 1016 1016 1016 1016 1016 1016 1016 1016 
1016 1016 1016 1016 1016 1016 1016 1016 1016 
1016 1016 1016 1016 1016 1016 1016 1016 1016 
1016 1016 1016 1016 1016 1016 1016 1016 1016 
1016 1016 1016 1016 1016 1016 1016 1016 1016 
1016 1016 1016 1016 1016 1016 1016 1016 1016 
1016 1016 1016 1016 1016 1016 1016 1016 1016 
1016 1016 1016 1016 1016 1016 1016 1016 1016 
1016 1016 1016 1016 1016 1016 1016 1016 1016 
1016 1016 1016 1016 1016 1016 1016 1016 1016 
1016 1016 1016 1016 1016 1016 1016 1016 1016 
1016 1016 1016 1016 1016 1016 1016 1016 1016 
1016 1016 1016 1016 1016 1016 1016 1016 1016 
1016 1016 1016 1016 1016 1016 1016 1016 1016 
1016 1016 1016 1016 1016 1016 1016 1016 1016 
1016 1016 1016 1016 1016 1016 1016 1016 1016 
1016 1016 1016 1016 1016 1016 1016 1016 1016 
1016 1016 1016 1016 1016 1016 1016 1016 1016 
1016 1016 1016 1016 1016 1016 1016 1016 1016 
1016 1016 1016 1016 1016 1016 1016 1016 1016 
1016 1016 1016 1016 1016 1016 1016 1016 1016 
1016 1016 1016 1016 1016 1016 1016 1016 1016 
1016 1016 1016 1016 1016 1016 1016 1016 1016 
1016 1016 1016 1016 1016 1016 1016 1016 1016 
1016 1016 1016 1016 1016 1016 1016 1016 1016 
1016 1016 1016 1016 1016 1016 1016 1016 1016 
1016 1016 1016 1016 1016 1016 1016 1016 1016 
1016 1016 1016 1016 1016 1016 1016 1016 1016 
1016 1016 1016 1016 1016 1016 1016 1016 1016 
1016 1016 1016 1016 1016 1016 1016 1016 1016 
1016 1016 1016 1016 1016 1016 1016 1016 1016 
1016 1016 1016 1016 1016 1016 1016 1016 1016 
1016 1016 1016 1016 1016 1016 1016 1016 1016 
1016 1016 1016 1016 1016 1016 1016 1016 1016 
1016 1016 1016 1016 1016 1016 1016 1016 1016 
1016 1016 1016 1016 1016 1016 1016 1016 1016 
1016 1016 1016 1016 1016 1016 1016 1016 1016 
1016 1016 1016 1016 1016 1016 1016 1016 1016 
1016 1016 1016 1016 1016 1016 1016 1016 1016 
1016 1016 1016 1016 1016 1016 1016 1016 1016 
1016 1016 1016 1016 1016 1016 1016 1016 1016 
1016 1016 1016 1016 1016 1016 1016 1016 1016 
1016 1016 1016 1016 1016 1016 1016 1016 1016 
1016 1016 1016 1016 1016 1016 1016 1016 1016 
1016 1016 1016 1016 1016 1016 1016 1016 1016 
1016 1016 1016 1016 1016 1016 1016 1016 1016 
1016 1016 1016 1016 1016 1016 1016 1016 1016 
1016 1016 1016 1016 1016 1016 1016 1016 1016 
1016 1016 1016 1016 1016 1016 1016 1016 1016 
1016 1016 1016 1016 1016 1016 1016 1016 1016 
1016 1016 1016 1016 1016 1016 1016 1016 1016 
1016 1016 1016 1016 1016 1016 1016 1016 1016 
1016 1016 1016 1016 1016 1016 1016 1016 1016 
1016 1016 1016 1016 1016 1016 1016 1016 1016 
1016 1016 1016 1016 1016 1016 1016 1016 1016 
1016 1016 1016 1016 1016 1016 1016 1016 1016 
1016 1016 1016 1016 1016 1016 1016 1016 1016 
1016 1016 1016 1016 1016 1016 1016 1016 1016 
1016 1016 1016 1016 1016 1016 1016 1016 1016 
1016 1016 1016 1016 1016 1016 1016 1016 1016 
1016 1016 1016 1016 1016 1016 1016 1016 1016 
1016 1016 1016 1016 1016 1016 1016 1016 1016 
1016 1016 1016 1016 1016 1016 1016 1016 1016 
1016 1016 1016 1016 1016 1016 1016 1016 1016 
1016 1016 1016 1016 1016 1016 1016 1016 1016 
1016 1016 1016 1016 1016 1016 1016 1016 1016 
1016 1016 1016 1016 1016 1016 1016 1016 1016 
1016 1016 1016 1016 1016 1016 1016 1016 1016 
1016 1016 1016 1016 1016 1016 1016 1016 1016 
1016 1016 1016 1016 1016 1016 1016 1016 1016 
1016 1016 1016 1016 1016 1016 1016 1016 1016 
1016 1016 1016 1016 1016 1016 1016 1016 1016 
1016 1016 1016 1016 1016 1016 1016 1016 1016 
1016 1016 1016 1016 1016 1016 1016 1016 1016 
1016 1016 1016 1016 1016 1016 1016 1016 1016 
1016 1016 1016 1016 1016 1016 1016 1016 1016 
1016 1016 1016 1016 1016 1016 1016 1016 1016 
1016 1016 1016 1016 1016 1016 1016 1016 1016 
1016 1016 1016 1016 1016 1016 1016 1016 1016 
1016 1016 1016 1016 1016 1016 1016 1016 1016 
1016 1016 1016 1016 1016 1016 1016 1016 1016 
1016 1016 1016 1016 1016 1016 1016 1016 1016 
1016 1016 1016 1016 1016 1016 1016 1016 1016 
1016 1016 1016 1016 1016 1016 1016 1016 1016 
1016 1016 1016 1016 1016 1016 1016 1016 1016 
1016 1016 1016 1016 1016 1016 1016 1016 1016 
1016 1016 1016 1016 1016 1016 1016 1016 1016 
1016 1016 1016 1016 1016 1016 1016 1016 1016 
1016 1016 1016 1016 1016 1016 1016 1016 1016 
1016 1016 1016 1016 1016 1016 1016 1016 1016 
1016 1016 1016 1016 1016 1016 1016 1016 1016 
1016 1016 1016 1016 1016 1016 1016 1016 1016 
1016 1016 1016 1016 1016 1016 1016 1016 1016 
1016 1016 1016 1016 1016 1016 1016 1016 1016 
1016 1016 1016 1016 1016 1016 1016 1016 1016 
1016 1016 1016 1016 1016 1016 1016 1016 1016 
1016 1016 1016 1016 1016 1016 1016 1016 1016 
1016 1016 1016 1016 1016 1016 1016 1016 1016 
1016 1016 1016 1016 1016 1016 1016 1016 1016 
1016 1016 1016 1016 1016 1016 1016 1016 1016 
1016 1016 1016 1016 1016 1016 1016 1016 1016 
1016 1016 1016 1016 1016 1016 1016 1016 1016 
1016 1016 1016 1016 1016 1016 1016 1016 1016 
1016 1016 1016 1016 1016 1016 1016 1016 1016 
1016 1016 1016 1016 1016 1016 1016 1016 1016 
1016 1016 1016 1016 1016 1016 1016 1016 1016 
1016 1016 1016 1016 1016 1016 1016 1016 1016 
1016 1016 1016 1016 1016 1016 1016 1016 1016 
1016 1016 1016 1016 1016 1016 1016 1016 1016 
1016 1016 1016 1016 1016 1016 1016 1016 1016 
1016 1016 1016 1016 1016 1016 1016 1016 1016 
1016 1016 1016 1016 1016 1016 1016 1016 1016 
1016 1016 1016 1016 1016 1016 1016 1016 1016 
1016 1016 1016 1016 1016 1016 1016 1016 1016 
1016 1016 1016 1016 1016 1016 1016 1016 1016 
1016 1016 1016 1016 1016 1016 1016 1016 1016 
1016 1016 1016 1016 1016 1016 1016 1016 1016 
1016 1016 1016 1016 1016 1016 1016 1016 1016 
1016 1016 1016 1016 1016 1016 1016 1016 1016 
1016 1016 1016 1016 1016 1016 1016 1016 1016 
1016 1016 1016 1016 1016 1016 1016 1016 1016 
1016 1016 1016 1016 1016 1016 1016 1016 1016 
1016 1016 1016 1016 1016 1016 1016 1016 1016 
1016 1016 1016 1016 1016 1016 1016 1016 1016 
1016 1016 1016 1016 1016 1016 1016 1016 1016 
1016 1016 1016 1016 1016 1016 1016 1016 1016 
1016 1016 1016 1016 1016 1016 1016 1016 1016 
1016 1016 1016 1016 1016 1016 1016 1016 1016 
1016 1016 1016 1016 1016 1016 1016 1016 1016 
1016 1016 1016 1016 1016 1016 1016 1016 1016 
1016 1016 1016 1016 1016 1016 1016 1016 1016 
1016 1016 1016 1016 1016 1016 1016 1016 1016 
1016 1016 1016 1016 1016 1016 1016 1016 1016 
1016 1016 1016 1016 1016 1016 1016 1016 1016 
1016 1016 1016 1016 1016 1016 1016 1016 1016 
1016 1016 1016 1016 1016 1016 1016 1016 1016 
1016 1016 1016 1016 1016 1016 1016 1016 1016 
1016 1016 1016 1016 1016 1016 1016 1016 1016 
1016 1016 1016 1016 1016 1016 1016 1016 1016 
1016 1016 1016 1016 1016 1016 1016 1016 1016 
1016 1016 1016 1016 1016 1016 1016 1016 1016 
1016 1016 1016 1016 1016 1016 1016 1016 1016 
1016 1016 1016 1016 1016 1016 1016 1016 1016 
1016 1016 1016 1016 1016 1016 1016 1016 1016 
1016 1016 1016 1016 1016 1016 1016 1016 1016 
1016 1016 1016 1016 1016 1016 1016 1016 1016 
1016 1016 1016 1016 1016 1016 1016 1016 1016 
1016 1016 1016 1016 1016 1016 1016 1016 1016 
1016 1016 1016 1016 1016 1016 1016 1016 1016 
1016 1016 1016 1016 1016 1016 1016 1016 1016 
1016 1016 1016 1016 1016 1016 1016 1016 1016 
1016 1016 1016 1016 1016 1016 1016 1016 1016 
1016 1016 1016 1016 1016 1016 1016 1016 1016 
1016 1016 1016 1016 1016 1016 1016 1016 1016 
1016 1016 1016 1016 1016 1016 1016 1016 1016 
1016 1016 1016 1016 1016 1016 1016 1016 1016 
1016 1016 1016 1016 1016 1016 1016 1016 1016 
1016 1016 1016 1016 1016 1016 1016 1016 1016 
1016 1016 1016 1016 1016 1016 1016 1016 1016 
1016 1016 1016 1016 1016 1016 1016 1016 1016 
1016 1016 1016 1016 1016 1016 1016 1016 1016 
1016 1016 1016 1016 1016 1016 1016 1016 1016 
1016 1016 1016 1016 1016 1016 1016 1016 1016 
1016 1016 1016 1016 1016 1016 1016 1016 1016 
1016 1016 1016 1016 1016 1016 1016 1016 1016 
1016 1016 1016 1016 1016 1016 1016 1016 1016 
1016 1016 1016 1016 1016 1016 1016 1016 1016 
1016 1016 1016 1016 1016 1016 1016 1016 1016 
1016 1016 1016 1016 1016 1016 1016 1016 1016 
1016 1016 1016 1016 1016 1016 1016 1016 1016 
1016 1016 1016 1016 1016 1016 1016 1016 1016 
1016 1016 1016 1016 1016 1016 1016 1016 1016 
1016 1016 1016 1016 1016 1016 1016 1016 1016 
1016 1016 1016 1016 1016 1016 1016 1016 1016 
1016 1016 1016 1016 1016 1016 1016 1016 1016 
1016 1016 1016 1016 1016 1016 1016 1016 1016 
1016 1016 1016 1016 1016 1016 1016 1016 1016 
1016 1016 1016 1016 1016 1016 1016 1016 1016 
1016 1016 1016 1016 1016 1016 1016 1016 1016 
1016 1016 1016 1016 1016 1016 1016 1016 1016 
1016 1016 1016 1016 1016 1016 1016 1016 1016 
1016 1016 1016 1016 1016 1016 1016 1016 1016 
1016 1016 1016 1016 1016 1016 1016 1016 1016 
1016 1016 1016 1016 1016 1016 1016 1016 1016 
1016 1016 1016 1016 1016 1016 1016 1016 1016 
1016 1016 1016 1016 1016 1016 1016 1016 1016 
1016 1016 1016 1016 1016 1016 1016 1016 1016 
1016 1016 1016 1016 1016 1016 1016 1016 1016 
1016 1016 1016 1016 1016 1016 1016 1016 1016 
1016 1016 1016 1016 1016 1016 1016 1016 1016 
1016 1016 1016 1016 1016 1016 1016 1016 1016 
1016 1016 1016 1016 1016 1016 1016 1016 1016 
1016 1016 1016 1016 1016 1016 1016 1016 1016 
1016 1016 1016 1016 1016 1016 1016 1016 1016 
1016 1016 1016 1016 1016 1016 1016 1016 1016 
1016 1016 1016 1016 1016 1016 1016 1016 1016 
1016 1016 1016 1016 1016 1016 1016 1016 1016 
1016 1016 1016 1016 1016 1016 1016 1016 1016 
1016 1016 1016 1016 1016 1016 1016 1016 1016 
1016 1016 1016 1016 1016 1016 1016 1016 1016 
1016 1016 1016 1016 1016 1016 1016 1016 1016 
1016 1016 1016 1016 1016 1016 1016 1016 1016 
1016 1016 1016 1016 1016 1016 1016 1016 1016 
1016 1016 1016 1016 1016 1016 1016 1016 1016 
1016 1016 1016 1016 1016 1016 1016 1016 1016 
1016 1016 1016 1016 1016 1016 1016 1016 1016 
1016 1016 1016 1016 1016 1016 1016 1016 1016 
1016 1016 1016 1016 1016 1016 1016 1016 1016 
1016 1016 1016 1016 1016 1016 1016 1016 1016 
1016 1016 1016 1016 1016 1016 1016 1016 1016 
1016 1016 1016 1016 1016 1016 1016 1016 1016 
1016 1016 1016 1016 1016 1016 1016 1016 1016 
1016 1016 1016 1016 1016 1016 1016 1016 1016 
1016 1016 1016 1016 1016 1016 1016 1016 1016 
1016 1016 1016 1016 1016 1016 1016 1016 1016 
1016 1016 1016 1016 1016 1016 1016 1016 1016 
1016 1016 1016 1016 1016 1016 1016 1016 1016 
1016 1016 1016 1016 1016 1016 1016 1016 1016 
1016 1016 1016 1016 1016 1016 1016 1016 1016 
1016 1016 1016 1016 1016 1016 1016 1016 1016 
1016 1016 1016 1016 1016 1016 1016 1016 1016 
1016 1016 1016 1016 1016 1016 1016 1016 1016 
1016 1016 1016 1016 1016 1016 1016 1016 1016 
1016 1016 1016 1016 1016 1016 1016 1016 1016 
1016 1016 1016 1016 1016 1016 1016 1016 1016 
1016 1016 1016 1016 1016 1016 1016 1016 1016 
1016 1016 1016 1016 1016 1016 1016 1016 1016 
1016 1016 1016 1016 1016 1016 1016 1016 1016 
1016 1016 1016 1016 1016 1016 1016 1016 1016 
1016 1016 1016 1016 1016 1016 1016 1016 1016 
1016 1016 1016 1016 1016 1016 1016 1016 1016 
1016 1016 1016 1016 1016 1016 1016 1016 1016 
1016 1016 1016 1016 1016 1016 1016 1016 1016 
1016 1016 1016 1016 1016 1016 1016 1016 1016 
1016 1016 1016 1016 1016 1016 1016 1016 1016 
1016 1016 1016 1016 1016 1016 1016 1016 1016 
1016 1016 1016 1016 1016 1016 1016 1016 1016 
1016 1016 1016 1016 1016 1016 1016 1016 1016 
1016 1016 1016 1016 1016 1016 1016 1016 1016 
1016 1016 1016 1016 1016 1016 1016 1016 1016 
1016 1016 1016 1016 1016 1016 1016 1016 1016 
1016 1016 1016 1016 1016 1016 1016 1016 1016 
1016 1016 1016 1016 1016 1016 1016 1016 1016 
1016 1016 1016 1016 1016 1016 1016 1016 1016 
1016 1016 1016 1016 1016 1016 1016 1016 1016 
1016 1016 1016 1016 1016 1016 1016 1016 1016 
1016 1016 1016 1016 1016 1016 1016 1016 1016 
1016 1016 1016 1016 1016 1016 1016 1016 1016 
1016 1016 1016 1016 1016 1016 1016 1016 1016 
1016 1016 1016 1016 1016 1016 1016 1016 1016 
1016 1016 1016 1016 1016 1016 1016 1016 1016 
1016 1016 1016 1016 1016 1016 1016 1016 1016 
1016 1016 1016 1016 1016 1016 1016 1016 1016 
1016 1016 1016 1016 1016 1016 1016 1016 1016 
1016 1016 1016 1016 1016 1016 1016 1016 1016 
1016 1016 1016 1016 1016 1016 1016 1016 1016 
1016 1016 1016 1016 1016 1016 1016 1016 1016 
1016 1016 1016 1016 1016 1016 1016 1016 1016 
1016 1016 1016 1016 1016 1016 1016 1016 1016 
1016 1016 1016 1016 1016 1016 1016 1016 1016 
1016 1016 1016 1016 1016 1016 1016 1016 1016 
1016 1016 1016 1016 1016 1016 1016 1016 1016 
1016 1016 1016 1016 1016 1016 1016 1016 1016 
1016 1016 1016 1016 1016 1016 1016 1016 1016 
1016 1016 1016 1016 1016 1016 1016 1016 1016 
1016 1016 1016 1016 1016 1016 1016 1016 1016 
1016 1016 1016 1016 1016 1016 1016 1016 1016 
1016 1016 1016 1016 1016 1016 1016 1016 1016 
1016 1016 1016 1016 1016 1016 1016 1016 1016 
1016 1016 1016 1016 1016 1016 1016 1016 1016 
1016 1016 1016 1016 1016 1016 1016 1016 1016 
1016 1016 1016 1016 1016 1016 1016 1016 1016 
1016 1016 1016 1016 1016 1016 1016 1016 1016 
1016 1016 1016 1016 1016 1016 1016 1016 1016 
1016 1016 1016 1016 1016 1016 1016 1016 1016 
1016 1016 1016 1016 1016 1016 1016 1016 1016 
1016 1016 1016 1016 1016 1016 1016 1016 1016 
1016 1016 1016 1016 1016 1016 1016 1016 1016 
1016 1016 1016 1016 1016 1016 1016 1016 1016 
1016 1016 1016 1016 1016 1016 1016 1016 1016 
1016 1016 1016 1016 1016 1016 1016 1016 1016 
1016 1016 1016 1016 1016 1016 1016 1016 1016 
1016 1016 1016 1016 1016 1016 1016 1016 1016 
1016 1016 1016 1016 1016 1016 1016 1016 1016 
1016 1016 1016 1016 1016 1016 1016 1016 1016 
1016 1016 1016 1016 1016 1016 1016 1016 1016 
1016 1016 1016 1016 1016 1016 1016 1016 1016 
1016 1016 1016 1016 1016 1016 1016 1016 1016 
1016 1016 1016 1016 1016 1016 1016 1016 1016 
1016 1016 1016 1016 1016 1016 1016 1016 1016 
1016 1016 1016 1016 1016 1016 1016 1016 1016 
1016 1016 1016 1016 1016 1016 1016 1016 1016 
1016 1016 1016 1016 1016 1016 1016 1016 1016 
1016 1016 1016 1016 1016 1016 1016 1016 1016 
1016 1016 1016 1016 1016 1016 1016 1016 1016 
1016 1016 1016 1016 1016 1016 1016 1016 1016 
1016 1016 1016 1016 1016 1016 1016 1016 1016 
1016 1016 1016 1016 1016 1016 1016 1016 1016 
1016 1016 1016 1016 1016 1016 1016 1016 1016 
1016 1016 1016 1016 1016 1016 1016 1016 1016 
1016 1016 1016 1016 1016 1016 1016 1016 1016 
1016 1016 1016 1016 1016 1016 1016 1016 1016 