# vtk DataFile Version 4.0
vtk output
ASCII
DATASET POLYDATA
POINTS 3598 float
3.02028 40.6667 13.9452 3.24192 40.3946 14.3215 3.22402 40.2976 13.8661 
2.77135 40.5434 14.1164 2.74589 40.2988 13.712 6.0805 39.6887 15.9303 
6.16417 39.4361 16.3382 6.24825 39.2025 16.0122 5.79334 39.5127 16.0958 
2.77993 39.8859 15.7445 3.06569 39.4766 16.365 3.55475 39.5751 15.8731 
1.98069 39.7774 15.7566 2.31469 39.5379 16.4336 1.67532 39.2677 16.1941 
5.75434 39.2739 15.7042 3.67234 39.8222 15.02 4.19312 39.2858 15.4787 
4.25482 39.179 14.6922 2.79699 40.2477 14.7731 1.88089 39.9692 14.9047 
1.4596 39.295 15.2066 4.05363 39.4797 14.4864 3.67761 39.6354 14.0918 
2.0193 40.1743 13.9803 1.03021 39.537 14.5373 0.927593 39.9314 14.0675 
0.138585 39.7595 13.6792 0.231886 39.3917 14.1335 -0.239462 39.5413 13.9398 
3.12021 39.5206 13.5709 2.14709 39.6141 13.3297 1.47739 39.5439 12.9276 
1.03352 39.8347 13.2562 0.376274 39.2887 13.0325 -0.103449 39.4011 13.6873 
1.11255 39.2472 12.5134 4.86833 38.8355 17.7959 4.99341 38.5351 18.4613 
5.56803 38.5203 18.0539 3.76342 38.8834 17.8703 4.29187 38.5407 18.5486 
2.75663 38.8268 17.7258 3.09203 38.3469 18.5165 2.40631 38.3584 18.0634 
5.72133 38.9974 16.9543 6.22891 38.4642 17.4621 6.39359 38.6426 16.6827 
4.83042 39.0062 16.8401 4.15065 39.0096 17.1784 3.0935 39.1592 17.0193 
1.90496 38.3654 17.6038 2.09949 39.0374 17.0064 1.45088 38.5331 16.8516 
6.28312 38.3851 16.1287 5.0094 39.0744 15.9137 3.96593 39.1894 16.3533 
1.32623 38.6244 15.9371 5.8994 38.5089 15.7267 5.23956 38.4868 15.4183 
4.65316 38.6313 14.9076 1.22803 38.4968 15.1829 4.11331 39.0502 14.1121 
4.34568 38.5332 13.9864 0.84093 38.6676 14.6031 -0.149581 39.2544 13.9656 
0.259895 38.6521 13.8741 3.70982 38.6659 13.5108 2.82652 38.751 13.2184 
1.95857 39.01 12.8886 2.48312 38.2773 12.734 0.385722 38.3324 13.0458 
1.62262 38.4766 12.3645 1.11633 38.7597 11.9266 1.20503 38.3312 11.918 
0.680526 38.6126 12.1951 0.95775 38.4918 11.7249 6.01328 37.683 19.9669 
6.07018 37.3154 20.1635 6.21714 37.3699 19.7194 5.8034 37.2396 19.855 
5.99862 37.5985 19.6955 4.70875 37.2059 19.231 5.38832 37.5775 18.8393 
4.91397 38.0382 18.8839 3.74932 38.0397 19.055 3.96861 37.3539 19.428 
3.06575 37.9477 19.0233 3.03481 37.3912 19.3482 2.47901 37.5219 19.0006 
6.94424 37.8011 17.8779 7.22279 37.2651 18.2565 7.63482 37.6177 17.8404 
6.05623 38.0235 18.16 6.00004 37.1758 18.4749 1.98238 38.0156 18.0082 
1.96314 37.509 18.5038 1.45278 37.5205 18.0072 7.68022 37.7756 17.125 
8.19144 37.4669 17.4549 8.31283 37.4405 16.8681 6.7828 38.0601 17.137 
0.979109 37.9207 16.6249 1.14585 37.757 17.4405 0.641784 37.2011 17.1948 
7.89274 37.5773 16.3844 7.60582 37.5368 15.6181 6.99211 37.7507 16.0768 
6.31437 37.7401 16.2671 6.23825 37.4411 15.8593 6.02664 37.9351 15.9613 
5.68854 37.7007 15.662 1.0528 38.0445 15.76 0.654864 37.3708 16.0766 
6.8293 37.7909 15.0055 7.38442 37.5496 15.0073 5.92678 37.7604 15.1162 
5.91263 37.3569 15.6775 5.12493 38.0371 14.9889 0.915359 37.9587 15.1795 
0.546733 37.4969 14.9021 7.08856 37.4399 14.4213 6.54357 37.4023 13.8215 
6.00648 37.8612 14.0421 4.97154 38.1063 14.0603 0.404322 37.4335 13.9174 
5.95916 37.4223 13.3803 5.43325 37.208 12.707 5.15746 37.8301 13.1738 
4.1414 37.9929 13.003 3.2638 38.195 12.9423 0.622972 37.5886 12.8323 
4.6494 37.3613 12.4666 3.88999 37.4888 12.3476 3.38386 37.1427 11.9182 
3.03951 37.7687 12.2766 1.91795 37.5562 12.3002 2.42577 37.5293 11.8838 
1.19392 37.7539 12.3547 0.884133 38.0938 12.0099 2.68528 37.229 11.6537 
5.77542 36.4727 20.4788 6.44809 36.6201 20.0286 5.40016 36.4125 19.9976 
6.0075 37.2219 19.2281 6.50008 36.8277 19.0986 5.04203 36.9998 18.6466 
5.492 36.6515 19.1175 4.67393 36.5033 18.791 4.1874 36.5614 19.4543 
3.23375 36.6079 19.6854 1.93082 37.0005 19.0064 2.07088 36.437 19.5142 
1.40986 36.4527 19.0117 8.77364 36.8159 18.0118 9.0717 36.1832 18.2858 
9.50869 36.5407 17.6632 8.09611 37.1991 17.9625 8.00536 36.651 18.349 
7.12275 36.4414 18.622 5.23678 36.4897 18.136 5.12054 36.7449 18.0109 
4.80018 36.5052 18.0912 0.846397 37.0471 17.8699 0.906771 36.4381 18.4998 
0.384507 36.3365 17.7611 8.80319 37.0347 17.1498 9.5528 36.3747 16.6857 
4.94526 36.4076 17.742 0.415461 36.6094 16.8675 8.93871 36.9048 15.9703 
9.40808 36.4946 15.7723 8.32266 37.2448 16.1598 5.97892 37.2839 15.959 
0.427729 36.4477 15.9818 9.04289 36.7754 15.2103 9.32731 36.1691 15.0927 
8.14818 37.106 15.0954 0.439808 36.4203 14.9514 8.77913 36.5048 14.6945 
7.985 36.5573 14.2925 7.16145 36.9363 13.9595 7.62945 36.3163 13.8258 
0.598713 36.5294 13.9124 6.86445 36.5796 13.5611 6.02053 36.4941 13.3736 
5.71928 36.4515 12.8197 1.06397 36.8911 12.8847 1.27133 36.2031 13.0202 
0.977672 36.2351 13.5645 5.06352 36.9154 12.0782 5.54383 36.55 12.0447 
4.57462 36.6648 12.0162 4.03859 36.8354 12.1365 3.64054 36.4342 11.8127 
2.10452 37.1138 11.7883 1.61725 36.5308 12.238 4.89957 36.1713 11.6579 
3.09093 36.473 11.5329 2.28905 36.3763 11.6087 6.19757 35.9358 20.8417 
5.97374 35.5077 21.1745 6.4481 35.3493 20.8043 5.58211 35.5819 20.8663 
6.86944 35.833 20.2595 7.10172 35.199 20.3467 7.30279 35.4175 19.7587 
4.84015 35.9609 19.8446 4.90854 35.5493 20.4171 3.86511 35.9565 19.9132 
4.13335 35.5331 20.4111 2.68479 35.985 20.0474 3.07325 35.3807 20.5117 
2.03521 35.8623 19.9952 2.19422 35.4807 20.2761 1.56126 35.2512 19.8099 
7.02644 36.0786 19.3344 7.43549 35.3673 19.0614 4.79399 36.1716 18.9822 
0.90256 35.9208 19.0166 1.12603 35.6822 19.2999 0.66365 35.5823 18.9282 
9.95725 36.0716 17.9778 9.84521 35.4185 18.4611 10.3658 35.4084 17.9478 
8.8792 35.3241 18.4451 8.00222 35.5589 18.5397 4.86806 36.2364 18.1076 
-0.039566 35.7096 17.8067 0.258687 35.4863 18.3612 -0.193189 35.4361 17.9536 
10.0735 35.9787 17.3399 10.2318 35.1993 17.2906 0.283594 35.6116 17.1118 
-0.049502 35.2904 17.7109 9.90124 35.4884 16.787 9.67974 35.6038 15.9157 
5.65514 35.7908 15.7653 6.34753 35.4875 15.8458 5.74136 35.2716 16.4676 
5.30613 35.3674 16.1388 0.558647 35.463 15.8659 9.41253 35.4932 14.8768 
5.95873 35.8944 15.0924 6.5059 35.4991 14.6669 4.98568 35.4601 15.6176 
5.27318 35.8209 14.8649 4.72811 35.3527 15.1208 0.648106 35.6999 14.7989 
8.6945 35.4762 14.2791 8.21258 35.8509 13.9479 8.33013 35.4106 13.9054 
6.0406 35.8513 14.1273 6.5962 35.4605 13.9739 5.55056 35.6758 13.8663 
4.95625 35.3609 14.6697 0.851436 35.8525 14.1511 1.34495 35.5509 13.7712 
0.946528 35.464 14.4853 7.77174 35.6937 13.6713 6.91901 35.6454 13.6461 
5.94571 35.9091 12.9812 6.01717 35.224 13.3616 6.30922 35.5242 12.6972 
1.64295 35.7327 12.7054 6.05705 36.0113 12.2548 6.35887 35.2293 12.0553 
4.16211 36.2418 11.8463 1.87222 35.89 12.0401 2.32497 35.5242 11.9583 
1.9553 35.485 12.3538 5.77233 35.7277 11.6279 4.9444 35.2235 11.2923 
3.93575 35.7525 11.5179 3.08367 35.457 11.5533 5.05544 34.6685 23.0453 
5.09901 34.2898 23.2219 5.25505 34.3064 22.7895 4.76503 34.2325 22.9628 
5.02608 34.5913 22.7577 5.79657 35.2205 20.8371 3.8883 34.9557 20.8115 
4.06063 34.4283 21.2663 4.46646 34.4304 20.6874 2.88735 34.8434 20.9432 
3.05898 34.3167 21.4983 2.37967 34.3472 21.1046 6.82533 34.6685 20.3073 
7.29043 34.5973 19.7679 6.07072 34.7991 20.2671 6.54311 34.2566 19.8932 
5.27685 34.9032 20.1641 4.65149 34.6717 20.1834 1.9772 34.576 20.5979 
1.38981 34.3693 19.9959 9.93086 34.7734 18.8808 9.89218 34.2318 19.3599 
10.3868 34.5854 18.8655 9.55006 34.4836 18.9467 7.6101 34.4854 18.9865 
5.87937 34.2436 19.6115 5.18613 34.156 19.621 0.868317 35.063 19.064 
1.16347 34.4745 19.3086 10.4086 34.3335 17.8395 9.23559 34.7603 18.6461 
8.31009 34.5851 18.6276 0.650561 34.6394 18.5465 0.070759 35.0262 18.0376 
0.419644 34.4592 17.9634 10.0618 34.6116 17.2183 9.96505 34.9597 17.003 
9.83043 34.752 16.7076 6.17442 34.9397 16.8103 6.58222 34.5929 16.9329 
6.2473 34.249 17.3005 5.54537 34.2821 16.8684 0.629344 34.5807 16.912 
9.97915 34.4408 16.4964 10.4688 34.4322 16.0355 10.039 34.841 15.9381 
6.78515 34.8855 16.2615 7.38421 34.4063 15.8428 6.95299 34.5074 16.5715 
5.12236 34.7739 16.3384 4.92787 35.0451 16.0151 4.74468 34.7734 15.7083 
0.89749 34.7983 16.0429 1.28442 34.3617 15.8854 1.02263 34.3103 16.5434 
10.6819 34.8553 15.0151 11.108 34.3499 15.5408 11.4107 34.3906 14.836 
9.85262 35.1562 14.964 7.11139 34.9613 15.0682 7.70572 34.5043 14.8527 
4.92508 34.2947 15.5349 5.20486 34.5463 14.8218 4.78055 34.8695 15.0973 
1.11039 35.0682 15.0145 1.64268 34.439 15.0354 10.933 34.8452 13.9436 
11.4243 34.1687 14.0216 10.0158 35.0498 13.8942 9.13839 34.9961 13.9264 
8.65127 34.505 13.736 8.27376 34.4855 14.3304 7.8218 35.0246 14.1099 
7.01944 35.1809 14.1259 5.67707 34.5766 14.0607 1.80281 34.864 14.1541 
2.28648 34.3538 13.8786 2.0533 34.3376 14.5419 10.8482 34.3733 13.3352 
10.2474 34.3395 12.8722 10.2078 34.8425 13.0736 9.32174 34.8074 12.9651 
8.77721 34.5281 13.0661 6.09477 34.4268 13.6251 6.4288 34.6075 12.9284 
2.11131 35.088 12.9585 2.55547 34.3245 12.9962 9.70185 34.5553 12.611 
9.12754 34.3958 12.63 6.44674 34.2125 11.877 2.76569 34.8852 12.1603 
3.31215 34.5456 11.8029 2.95857 34.131 12.3436 5.86505 34.8467 11.351 
5.20624 34.7486 10.9977 5.55714 34.5209 10.9493 4.61858 34.3777 10.833 
4.00448 34.5071 11.3952 5.26177 34.2881 10.6572 3.94984 34.6327 8.02541 
3.82654 34.215 8.50698 4.26546 34.2231 7.84129 3.58046 34.4379 8.07733 
2.04274 34.7785 7.71632 2.01884 34.5425 8.19331 2.38225 34.6077 7.93989 
1.80512 34.462 7.84619 3.86515 34.5003 7.72391 2.67081 34.1994 7.55729 
3.26859 34.4448 6.97079 2.63761 34.8143 7.11412 1.98709 34.9042 6.85248 
1.69843 34.6214 7.18501 2.89658 34.6638 6.34594 2.50613 34.368 5.6759 
2.2123 34.7888 6.18695 1.51325 34.4181 6.29335 1.6268 34.2268 5.67215 
4.92042 33.7639 23.2351 5.29172 33.577 22.8822 4.60408 33.6084 23.0421 
4.84318 34.1172 22.256 5.35943 33.6097 21.9915 4.18072 33.3221 22.6263 
3.87544 34.0215 21.8768 3.04069 33.9157 21.9874 3.01482 33.3769 22.2793 
2.42822 33.4966 22.0134 7.00295 33.6426 20.9472 6.90702 33.1435 21.1556 
7.16828 33.3693 20.7822 6.6109 33.3374 21.0266 4.81361 33.9913 21.2156 
5.47272 33.3121 20.7641 1.93301 33.988 21.0413 1.9222 33.4599 21.5224 
[...]
CELL_DATA 7196
SCALARS scalars float
LOOKUP_TABLE default
2002 2002 2002 2002 2002 2002 2002 2002 2002 
2002 2002 2002 2002 2002 2002 2002 2002 2002 
2002 2002 2002 2002 2002 2002 2002 2002 2002 
2002 2002 2002 2002 2002 2002 2002 2002 2002 
2002 2002 2002 2002 2002 2002 2002 2002 2002 
2002 2002 2002 2002 2002 2002 2002 2002 2002 
2002 2002 2002 2002 2002 2002 2002 2002 2002 
2002 2002 2002 2002 2002 2002 2002 2002 2002 
2002 2002 2002 2002 2002 2002 2002 2002 2002 
2002 2002 2002 2002 2002 2002 2002 2002 2002 
2002 2002 2002 2002 2002 2002 2002 2002 2002 
2002 2002 2002 2002 2002 2002 2002 2002 2002 
2002 2002 2002 2002 2002 2002 2002 2002 2002 
2002 2002 2002 2002 2002 2002 2002 2002 2002 
2002 2002 2002 2002 2002 2002 2002 2002 2002 
2002 2002 2002 2002 2002 2002 2002 2002 2002 
2002 2002 2002 2002 2002 2002 2002 2002 2002 
2002 2002 2002 2002 2002 2002 2002 2002 2002 
2002 2002 2002 2002 2002 2002 2002 2002 2002 
2002 2002 2002 2002 2002 2002 2002 2002 2002 
2002 2002 2002 2002 2002 2002 2002 2002 2002 
2002 2002 2002 2002 2002 2002 2002 2002 2002 
2002 2002 2002 2002 2002 2002 2002 2002 2002 
2002 2002 2002 2002 2002 2002 2002 2002 2002 
2002 2002 2002 2002 2002 2002 2002 2002 2002 
2002 2002 2002 2002 2002 2002 2002 2002 2002 
2002 2002 2002 2002 2002 2002 2002 2002 2002 
2002 2002 2002 2002 2002 2002 2002 2002 2002 
2002 2002 2002 2002 2002 2002 2002 2002 2002 
2002 2002 2002 2002 2002 2002 2002 2002 2002 
2002 2002 2002 2002 2002 2002 2002 2002 2002 
2002 2002 2002 2002 2002 2002 2002 2002 2002 
2002 2002 2002 2002 2002 2002 2002 2002 2002 
2002 2002 2002 2002 2002 2002 2002 2002 2002 
2002 2002 2002 2002 2002 2002 2002 2002 2002 
2002 2002 2002 2002 2002 2002 2002 2002 2002 
2002 2002 2002 2002 2002 2002 2002 2002 2002 
2002 2002 2002 2002 2002 2002 2002 2002 2002 
2002 2002 2002 2002 2002 2002 2002 2002 2002 
2002 2002 2002 2002 2002 2002 2002 2002 2002 
2002 2002 2002 2002 2002 2002 2002 2002 2002 
2002 2002 2002 2002 2002 2002 2002 2002 2002 
2002 2002 2002 2002 2002 2002 2002 2002 2002 
2002 2002 2002 2002 2002 2002 2002 2002 2002 
2002 2002 2002 2002 2002 2002 2002 2002 2002 
2002 2002 2002 2002 2002 2002 2002 2002 2002 
2002 2002 2002 2002 2002 2002 2002 2002 2002 
2002 2002 2002 2002 2002 2002 2002 2002 2002 
2002 2002 2002 2002 2002 2002 2002 2002 2002 
2002 2002 2002 2002 2002 2002 2002 2002 2002 
2002 2002 2002 2002 2002 2002 2002 2002 2002 
2002 2002 2002 2002 2002 2002 2002 2002 2002 
2002 2002 2002 2002 2002 2002 2002 2002 2002 
2002 2002 2002 2002 2002 2002 2002 2002 2002 
2002 2002 2002 2002 2002 2002 2002 2002 2002 
2002 2002 2002 2002 2002 2002 2002 2002 2002 
2002 2002 2002 2002 2002 2002 2002 2002 2002 
2002 2002 2002 2002 2002 2002 2002 2002 2002 
2002 2002 2002 2002 2002 2002 2002 2002 2002 
2002 2002 2002 2002 2002 2002 2002 2002 2002 
2002 2002 2002 2002 2002 2002 2002 2002 2002 
2002 2002 2002 2002 2002 2002 2002 2002 2002 
2002 2002 2002 2002 2002 2002 2002 2002 2002 
2002 2002 2002 2002 2002 2002 2002 2002 2002 
2002 2002 2002 2002 2002 2002 2002 2002 2002 
2002 2002 2002 2002 2002 2002 2002 2002 2002 
2002 2002 2002 2002 2002 2002 2002 2002 2002 
2002 2002 2002 2002 2002 2002 2002 2002 2002 
2002 2002 2002 2002 2002 2002 2002 2002 2002 
2002 2002 2002 2002 2002 2002 2002 2002 2002 
2002 2002 2002 2002 2002 2002 2002 2002 2002 
2002 2002 2002 2002 2002 2002 2002 2002 2002 
2002 2002 2002 2002 2002 2002 2002 2002 2002 
2002 2002 2002 2002 2002 2002 2002 2002 2002 
2002 2002 2002 2002 2002 2002 2002 2002 2002 
2002 2002 2002 2002 2002 2002 2002 2002 2002 
2002 2002 2002 2002 2002 2002 2002 2002 2002 
2002 2002 2002 2002 2002 2002 2002 2002 2002 
2002 2002 2002 2002 2002 2002 2002 2002 2002 
2002 2002 2002 2002 2002 2002 2002 2002 2002 
2002 2002 2002 2002 2002 2002 2002 2002 2002 
2002 2002 2002 2002 2002 2002 2002 2002 2002 
2002 2002 2002 2002 2002 2002 2002 2002 2002 
2002 2002 2002 2002 2002 2002 2002 2002 2002 
2002 2002 2002 2002 2002 2002 2002 2002 2002 
2002 2002 2002 2002 2002 2002 2002 2002 2002 
2002 2002 2002 2002 2002 2002 2002 2002 2002 
2002 2002 2002 2002 2002 2002 2002 2002 2002 
2002 2002 2002 2002 2002 2002 2002 2002 2002 
2002 2002 2002 2002 2002 2002 2002 2002 2002 
2002 2002 2002 2002 2002 2002 2002 2002 2002 
2002 2002 2002 2002 2002 2002 2002 2002 2002 
2002 2002 2002 2002 2002 2002 2002 2002 2002 
2002 2002 2002 2002 2002 2002 2002 2002 2002 
2002 2002 2002 2002 2002 2002 2002 2002 2002 
2002 2002 2002 2002 2002 2002 2002 2002 2002 
2002 2002 2002 2002 2002 2002 2002 2002 2002 
2002 2002 2002 2002 2002 2002 2002 2002 2002 
2002 2002 2002 2002 2002 2002 2002 2002 2002 
2002 2002 2002 2002 2002 2002 2002 2002 2002 
2002 2002 2002 2002 2002 2002 2002 2002 2002 
2002 2002 2002 2002 2002 2002 2002 2002 2002 
2002 2002 2002 2002 2002 2002 2002 2002 2002 
2002 2002 2002 2002 2002 2002 2002 2002 2002 
2002 2002 2002 2002 2002 2002 2002 2002 2002 
2002 2002 2002 2002 2002 2002 2002 2002 2002 
2002 2002 2002 2002 2002 2002 2002 2002 2002 
2002 2002 2002 2002 2002 2002 2002 2002 2002 
2002 2002 2002 2002 2002 2002 2002 2002 2002 
2002 2002 2002 2002 2002 2002 2002 2002 2002 
2002 2002 2002 2002 2002 2002 2002 2002 2002 
2002 2002 2002 2002 2002 2002 2002 2002 2002 
2002 2002 2002 2002 2002 2002 2002 2002 2002 
2002 2002 2002 2002 2002 2002 2002 2002 2002 
2002 2002 2002 2002 2002 2002 2002 2002 2002 
2002 2002 2002 2002 2002 2002 2002 2002 2002 
2002 2002 2002 2002 2002 2002 2002 2002 2002 
2002 2002 2002 2002 2002 2002 2002 2002 2002 
2002 2002 2002 2002 2002 2002 2002 2002 2002 
2002 2002 2002 2002 2002 2002 2002 2002 2002 
2002 2002 2002 2002 2002 2002 2002 2002 2002 
2002 2002 2002 2002 2002 2002 2002 2002 2002 
2002 2002 2002 2002 2002 2002 2002 2002 2002 
2002 2002 2002 2002 2002 2002 2002 2002 2002 
2002 2002 2002 2002 2002 2002 2002 2002 2002 
2002 2002 2002 2002 2002 2002 2002 2002 2002 
2002 2002 2002 2002 2002 2002 2002 2002 2002 
2002 2002 2002 2002 2002 2002 2002 2002 2002 
2002 2002 2002 2002 2002 2002 2002 2002 2002 
2002 2002 2002 2002 2002 2002 2002 2002 2002 
2002 2002 2002 2002 2002 2002 2002 2002 2002 
2002 2002 2002 2002 2002 2002 2002 2002 2002 
2002 2002 2002 2002 2002 2002 2002 2002 2002 
2002 2002 2002 2002 2002 2002 2002 2002 2002 
2002 2002 2002 2002 2002 2002 2002 2002 2002 
2002 2002 2002 2002 2002 2002 2002 2002 2002 
2002 2002 2002 2002 2002 2002 2002 2002 2002 
2002 2002 2002 2002 2002 2002 2002 2002 2002 
2002 2002 2002 2002 2002 2002 2002 2002 2002 
2002 2002 2002 2002 2002 2002 2002 2002 2002 
2002 2002 2002 2002 2002 2002 2002 2002 2002 
2002 2002 2002 2002 2002 2002 2002 2002 2002 
2002 2002 2002 2002 2002 2002 2002 2002 2002 
2002 2002 2002 2002 2002 2002 2002 2002 2002 
2002 2002 2002 2002 2002 2002 2002 2002 2002 
2002 2002 2002 2002 2002 2002 2002 2002 2002 
2002 2002 2002 2002 2002 2002 2002 2002 2002 
2002 2002 2002 2002 2002 2002 2002 2002 2002 
2002 2002 2002 2002 2002 2002 2002 2002 2002 
2002 2002 2002 2002 2002 2002 2002 2002 2002 
2002 2002 2002 2002 2002 2002 2002 2002 2002 
2002 2002 2002 2002 2002 2002 2002 2002 2002 
2002 2002 2002 2002 2002 2002 2002 2002 2002 
2002 2002 2002 2002 2002 2002 2002 2002 2002 
2002 2002 2002 2002 2002 2002 2002 2002 2002 
2002 2002 2002 2002 2002 2002 2002 2002 2002 
2002 2002 2002 2002 2002 2002 2002 2002 2002 
2002 2002 2002 2002 2002 2002 2002 2002 2002 
2002 2002 2002 2002 2002 2002 2002 2002 2002 
2002 2002 2002 2002 2002 2002 2002 2002 2002 
2002 2002 2002 2002 2002 2002 2002 2002 2002 
2002 2002 2002 2002 2002 2002 2002 2002 2002 
2002 2002 2002 2002 2002 2002 2002 2002 2002 
2002 2002 2002 2002 2002 2002 2002 2002 2002 
2002 2002 2002 2002 2002 2002 2002 2002 2002 
2002 2002 2002 2002 2002 2002 2002 2002 2002 
2002 2002 2002 2002 2002 2002 2002 2002 2002 
2002 2002 2002 2002 2002 2002 2002 2002 2002 
2002 2002 2002 2002 2002 2002 2002 2002 2002 
2002 2002 2002 2002 2002 2002 2002 2002 2002 
2002 2002 2002 2002 2002 2002 2002 2002 2002 
2002 2002 2002 2002 2002 2002 2002 2002 2002 
2002 2002 2002 2002 2002 2002 2002 2002 2002 
2002 2002 2002 2002 2002 2002 2002 2002 2002 
2002 2002 2002 2002 2002 2002 2002 2002 2002 
2002 2002 2002 2002 2002 2002 2002 2002 2002 
2002 2002 2002 2002 2002 2002 2002 2002 2002 
2002 2002 2002 2002 2002 2002 2002 2002 2002 
2002 2002 2002 2002 2002 2002 2002 2002 2002 
2002 2002 2002 2002 2002 2002 2002 2002 2002 
2002 2002 2002 2002 2002 2002 2002 2002 2002 
2002 2002 2002 2002 2002 2002 2002 2002 2002 
2002 2002 2002 2002 2002 2002 2002 2002 2002 
2002 2002 2002 2002 2002 2002 2002 2002 2002 
2002 2002 2002 2002 2002 2002 2002 2002 2002 
2002 2002 2002 2002 2002 2002 2002 2002 2002 
2002 2002 2002 2002 2002 2002 2002 2002 2002 
2002 2002 2002 2002 2002 2002 2002 2002 2002 
2002 2002 2002 2002 2002 2002 2002 2002 2002 
2002 2002 2002 2002 2002 2002 2002 2002 2002 
2002 2002 2002 2002 2002 2002 2002 2002 2002 
2002 2002 2002 2002 2002 2002 2002 2002 2002 
2002 2002 2002 2002 2002 2002 2002 2002 2002 
2002 2002 2002 2002 2002 2002 2002 2002 2002 
2002 2002 2002 2002 2002 2002 2002 2002 2002 
2002 2002 2002 2002 2002 2002 2002 2002 2002 
2002 2002 2002 2002 2002 2002 2002 2002 2002 
2002 2002 2002 2002 2002 2002 2002 2002 2002 
2002 2002 2002 2002 2002 2002 2002 2002 2002 
2002 2002 2002 2002 2002 2002 2002 2002 2002 
2002 2002 2002 2002 2002 2002 2002 2002 2002 
2002 2002 2002 2002 2002 2002 2002 2002 2002 
2002 2002 2002 2002 2002 2002 2002 2002 2002 
2002 2002 2002 2002 2002 2002 2002 2002 2002 
2002 2002 2002 2002 2002 2002 2002 2002 2002 
2002 2002 2002 2002 2002 2002 2002 2002 2002 
2002 2002 2002 2002 2002 2002 2002 2002 2002 
2002 2002 2002 2002 2002 2002 2002 2002 2002 
2002 2002 2002 2002 2002 2002 2002 2002 2002 
2002 2002 2002 2002 2002 2002 2002 2002 2002 
2002 2002 2002 2002 2002 2002 2002 2002 2002 
2002 2002 2002 2002 2002 2002 2002 2002 2002 
2002 2002 2002 2002 2002 2002 2002 2002 2002 
2002 2002 2002 2002 2002 2002 2002 2002 2002 
2002 2002 2002 2002 2002 2002 2002 2002 2002 
2002 2002 2002 2002 2002 2002 2002 2002 2002 
2002 2002 2002 2002 2002 2002 2002 2002 2002 
2002 2002 2002 2002 2002 2002 2002 2002 2002 
2002 2002 2002 2002 2002 2002 2002 2002 2002 
2002 2002 2002 2002 2002 2002 2002 2002 2002 
2002 2002 2002 2002 2002 2002 2002 2002 2002 
2002 2002 2002 2002 2002 2002 2002 2002 2002 
2002 2002 2002 2002 2002 2002 2002 2002 2002 
2002 2002 2002 2002 2002 2002 2002 2002 2002 
2002 2002 2002 2002 2002 2002 2002 2002 2002 
2002 2002 2002 2002 2002 2002 2002 2002 2002 
2002 2002 2002 2002 2002 2002 2002 2002 2002 
2002 2002 2002 2002 2002 2002 2002 2002 2002 
2002 2002 2002 2002 2002 2002 2002 2002 2002 
2002 2002 2002 2002 2002 2002 2002 2002 2002 
2002 2002 2002 2002 2002 2002 2002 2002 2002 
2002 2002 2002 2002 2002 2002 2002 2002 2002 
2002 2002 2002 2002 2002 2002 2002 2002 2002 
2002 2002 2002 2002 2002 2002 2002 2002 2002 
2002 2002 2002 2002 2002 2002 2002 2002 2002 
2002 2002 2002 2002 2002 2002 2002 2002 2002 
2002 2002 2002 2002 2002 2002 2002 2002 2002 
2002 2002 2002 2002 2002 2002 2002 2002 2002 
2002 2002 2002 2002 2002 2002 2002 2002 2002 
2002 2002 2002 2002 2002 2002 2002 2002 2002 
2002 2002 2002 2002 2002 2002 2002 2002 2002 
2002 2002 2002 2002 2002 2002 2002 2002 2002 
2002 2002 2002 2002 2002 2002 2002 2002 2002 
2002 2002 2002 2002 2002 2002 2002 2002 2002 
2002 2002 2002 2002 2002 2002 2002 2002 2002 
2002 2002 2002 2002 2002 2002 2002 2002 2002 
2002 2002 2002 2002 2002 2002 2002 2002 2002 
2002 2002 2002 2002 2002 2002 2002 2002 2002 
2002 2002 2002 2002 2002 2002 2002 2002 2002 
2002 2002 2002 2002 2002 2002 2002 2002 2002 
2002 2002 2002 2002 2002 2002 2002 2002 2002 
2002 2002 2002 2002 2002 2002 2002 2002 2002 
2002 2002 2002 2002 2002 2002 2002 2002 2002 
2002 2002 2002 2002 2002 2002 2002 2002 2002 
2002 2002 2002 2002 2002 2002 2002 2002 2002 
2002 2002 2002 2002 2002 2002 2002 2002 2002 
2002 2002 2002 2002 2002 2002 2002 2002 2002 
2002 2002 2002 2002 2002 2002 2002 2002 2002 
2002 2002 2002 2002 2002 2002 2002 2002 2002 
2002 2002 2002 2002 2002 2002 2002 2002 2002 
2002 2002 2002 2002 2002 2002 2002 2002 2002 
2002 2002 2002 2002 2002 2002 2002 2002 2002 
2002 2002 2002 2002 2002 2002 2002 2002 2002 
2002 2002 2002 2002 2002 2002 2002 2002 2002 
2002 2002 2002 2002 2002 2002 2002 2002 2002 
2002 2002 2002 2002 2002 2002 2002 2002 2002 
2002 2002 2002 2002 2002 2002 2002 2002 2002 
2002 2002 2002 2002 2002 2002 2002 2002 2002 
2002 2002 2002 2002 2002 2002 2002 2002 2002 
2002 2002 2002 2002 2002 2002 2002 2002 2002 
2002 2002 2002 2002 2002 2002 2002 2002 2002 
2002 2002 2002 2002 2002 2002 2002 2002 2002 
2002 2002 2002 2002 2002 2002 2002 2002 2002 
2002 2002 2002 2002 2002 2002 2002 2002 2002 
2002 2002 2002 2002 2002 2002 2002 2002 2002 
2002 2002 2002 2002 2002 2002 2002 2002 2002 
2002 2002 2002 2002 2002 2002 2002 2002 2002 
2002 2002 2002 2002 2002 2002 2002 2002 2002 
2002 2002 2002 2002 2002 2002 2002 2002 2002 
2002 2002 2002 2002 2002 2002 2002 2002 2002 
2002 2002 2002 2002 2002 2002 2002 2002 2002 
2002 2002 2002 2002 2002 2002 2002 2002 2002 
2002 2002 2002 2002 2002 2002 2002 2002 2002 
2002 2002 2002 2002 2002 2002 2002 2002 2002 
2002 2002 2002 2002 2002 2002 2002 2002 2002 
2002 2002 2002 2002 2002 2002 2002 2002 2002 
2002 2002 2002 2002 2002 2002 2002 2002 2002 
2002 2002 2002 2002 2002 2002 2002 2002 2002 
2002 2002 2002 2002 2002 2002 2002 2002 2002 
2002 2002 2002 2002 2002 2002 2002 2002 2002 
2002 2002 2002 2002 2002 2002 2002 2002 2002 
2002 2002 2002 2002 2002 2002 2002 2002 2002 
2002 2002 2002 2002 2002 2002 2002 2002 2002 
2002 2002 2002 2002 2002 2002 2002 2002 2002 
2002 2002 2002 2002 2002 2002 2002 2002 2002 
2002 2002 2002 2002 2002 2002 2002 2002 2002 
2002 2002 2002 2002 2002 2002 2002 2002 2002 
2002 2002 2002 2002 2002 2002 2002 2002 2002 
2002 2002 2002 2002 2002 2002 2002 2002 2002 
2002 2002 2002 2002 2002 2002 2002 2002 2002 
2002 2002 2002 2002 2002 2002 2002 2002 2002 
2002 2002 2002 2002 2002 2002 2002 2002 2002 
2002 2002 2002 2002 2002 2002 2002 2002 2002 
2002 2002 2002 2002 2002 2002 2002 2002 2002 
2002 2002 2002 2002 2002 2002 2002 2002 2002 
2002 2002 2002 2002 2002 2002 2002 2002 2002 
2002 2002 2002 2002 2002 2002 2002 2002 2002 
2002 2002 2002 2002 2002 2002 2002 2002 2002 
2002 2002 2002 2002 2002 2002 2002 2002 2002 
2002 2002 2002 2002 2002 2002 2002 2002 2002 
2002 2002 2002 2002 2002 2002 2002 2002 2002 
2002 2002 2002 2002 2002 2002 2002 2002 2002 
2002 2002 2002 2002 2002 2002 2002 2002 2002 
2002 2002 2002 2002 2002 2002 2002 2002 2002 
2002 2002 2002 2002 2002 2002 2002 2002 2002 
2002 2002 2002 2002 2002 2002 2002 2002 2002 
2002 2002 2002 2002 2002 2002 2002 2002 2002 
2002 2002 2002 2002 2002 2002 2002 2002 2002 
2002 2002 2002 2002 2002 2002 2002 2002 2002 
2002 2002 2002 2002 2002 2002 2002 2002 2002 
2002 2002 2002 2002 2002 2002 2002 2002 2002 
2002 2002 2002 2002 2002 2002 2002 2002 2002 
2002 2002 2002 2002 2002 2002 2002 2002 2002 
2002 2002 2002 2002 2002 2002 2002 2002 2002 
2002 2002 2002 2002 2002 2002 2002 2002 2002 
2002 2002 2002 2002 2002 2002 2002 2002 2002 
2002 2002 2002 2002 2002 2002 2002 2002 2002 
2002 2002 2002 2002 2002 2002 2002 2002 2002 
2002 2002 2002 2002 2002 2002 2002 2002 2002 
2002 2002 2002 2002 2002 2002 2002 2002 2002 
2002 2002 2002 2002 2002 2002 2002 2002 2002 
2002 2002 2002 2002 2002 2002 2002 2002 2002 
2002 2002 2002 2002 2002 2002 2002 2002 2002 
2002 2002 2002 2002 2002 2002 2002 2002 2002 
2002 2002 2002 2002 2002 2002 2002 2002 2002 
2002 2002 2002 2002 2002 2002 2002 2002 2002 
2002 2002 2002 2002 2002 2002 2002 2002 2002 
2002 2002 2002 2002 2002 2002 2002 2002 2002 
2002 2002 2002 2002 2002 2002 2002 2002 2002 
2002 2002 2002 2002 2002 2002 2002 2002 2002 
2002 2002 2002 2002 2002 2002 2002 2002 2002 
2002 2002 2002 2002 2002 2002 2002 2002 2002 
2002 2002 2002 2002 2002 2002 2002 2002 2002 
2002 2002 2002 2002 2002 2002 2002 2002 2002 
2002 2002 2002 2002 2002 2002 2002 2002 2002 
2002 2002 2002 2002 2002 2002 2002 2002 2002 
2002 2002 2002 2002 2002 2002 2002 2002 2002 
2002 2002 2002 2002 2002 2002 2002 2002 2002 
2002 2002 2002 2002 2002 2002 2002 2002 2002 
2002 2002 2002 2002 2002 2002 2002 2002 2002 
2002 2002 2002 2002 2002 2002 2002 2002 2002 
2002 2002 2002 2002 2002 2002 2002 2002 2002 
2002 2002 2002 2002 2002 2002 2002 2002 2002 
2002 2002 2002 2002 2002 2002 2002 2002 2002 
2002 2002 2002 2002 2002 2002 2002 2002 2002 
2002 2002 2002 2002 2002 2002 2002 2002 2002 
2002 2002 2002 2002 2002 2002 2002 2002 2002 
2002 2002 2002 2002 2002 2002 2002 2002 2002 
2002 2002 2002 2002 2002 2002 2002 2002 2002 
2002 2002 2002 2002 2002 2002 2002 2002 2002 
2002 2002 2002 2002 2002 2002 2002 2002 2002 
2002 2002 2002 2002 2002 2002 2002 2002 2002 
2002 2002 2002 2002 2002 2002 2002 2002 2002 
2002 2002 2002 2002 2002 2002 2002 2002 2002 
2002 2002 2002 2002 2002 2002 2002 2002 2002 
2002 2002 2002 2002 2002 2002 2002 2002 2002 
2002 2002 2002 2002 2002 2002 2002 2002 2002 
2002 2002 2002 2002 2002 2002 2002 2002 2002 
2002 2002 2002 2002 2002 2002 2002 2002 2002 
2002 2002 2002 2002 2002 2002 2002 2002 2002 
2002 2002 2002 2002 2002 2002 2002 2002 2002 
2002 2002 2002 2002 2002 2002 2002 2002 2002 
2002 2002 2002 2002 2002 2002 2002 2002 2002 
2002 2002 2002 2002 2002 2002 2002 2002 2002 
2002 2002 2002 2002 2002 2002 2002 2002 2002 
2002 2002 2002 2002 2002 2002 2002 2002 2002 
2002 2002 2002 2002 2002 2002 2002 2002 2002 
2002 2002 2002 2002 2002 2002 2002 2002 2002 
2002 2002 2002 2002 2002 2002 2002 2002 2002 
2002 2002 2002 2002 2002 2002 2002 2002 2002 
2002 2002 2002 2002 2002 2002 2002 2002 2002 
2002 2002 2002 2002 2002 2002 2002 2002 2002 
2002 2002 2002 2002 2002 2002 2002 2002 2002 
2002 2002 2002 2002 2002 2002 2002 2002 2002 
2002 2002 2002 2002 2002 2002 2002 2002 2002 
2002 2002 2002 2002 2002 2002 2002 2002 2002 
2002 2002 2002 2002 2002 2002 2002 2002 2002 
2002 2002 2002 2002 2002 2002 2002 2002 2002 
2002 2002 2002 2002 2002 2002 2002 2002 2002 
2002 2002 2002 2002 2002 2002 2002 2002 2002 
2002 2002 2002 2002 2002 2002 2002 2002 2002 
2002 2002 2002 2002 2002 2002 2002 2002 2002 
2002 2002 2002 2002 2002 2002 2002 2002 2002 
2002 2002 2002 2002 2002 2002 2002 2002 2002 
2002 2002 2002 2002 2002 2002 2002 2002 2002 
2002 2002 2002 2002 2002 2002 2002 2002 2002 
2002 2002 2002 2002 2002 2002 2002 2002 2002 
2002 2002 2002 2002 2002 2002 2002 2002 2002 
2002 2002 2002 2002 2002 2002 2002 2002 2002 
2002 2002 2002 2002 2002 2002 2002 2002 2002 
2002 2002 2002 2002 2002 2002 2002 2002 2002 
2002 2002 2002 2002 2002 2002 2002 2002 2002 
2002 2002 2002 2002 2002 2002 2002 2002 2002 
2002 2002 2002 2002 2002 2002 2002 2002 2002 
2002 2002 2002 2002 2002 2002 2002 2002 2002 
2002 2002 2002 2002 2002 2002 2002 2002 2002 
2002 2002 2002 2002 2002 2002 2002 2002 2002 
2002 2002 2002 2002 2002 2002 2002 2002 2002 
2002 2002 2002 2002 2002 2002 2002 2002 2002 
2002 2002 2002 2002 2002 2002 2002 2002 2002 
2002 2002 2002 2002 2002 2002 2002 2002 2002 
2002 2002 2002 2002 2002 2002 2002 2002 2002 
2002 2002 2002 2002 2002 2002 2002 2002 2002 
2002 2002 2002 2002 2002 2002 2002 2002 2002 
2002 2002 2002 2002 2002 2002 2002 2002 2002 
2002 2002 2002 2002 2002 2002 2002 2002 2002 
2002 2002 2002 2002 2002 2002 2002 2002 2002 
2002 2002 2002 2002 2002 2002 2002 2002 2002 
2002 2002 2002 2002 2002 2002 2002 2002 2002 
2002 2002 2002 2002 2002 2002 2002 2002 2002 
2002 2002 2002 2002 2002 2002 2002 2002 2002 
2002 2002 2002 2002 2002 2002 2002 2002 2002 
2002 2002 2002 2002 2002 2002 2002 2002 2002 
2002 2002 2002 2002 2002 2002 2002 2002 2002 
2002 2002 2002 2002 2002 2002 2002 2002 2002 
2002 2002 2002 2002 2002 2002 2002 2002 2002 
2002 2002 2002 2002 2002 2002 2002 2002 2002 
2002 2002 2002 2002 2002 2002 2002 2002 2002 
2002 2002 2002 2002 2002 2002 2002 2002 2002 
2002 2002 2002 2002 2002 2002 2002 2002 2002 
2002 2002 2002 2002 2002 2002 2002 2002 2002 
2002 2002 2002 2002 2002 2002 2002 2002 2002 
2002 2002 2002 2002 2002 2002 2002 2002 2002 