# vtk DataFile Version 4.0
vtk output
ASCII
DATASET POLYDATA
POINTS 10490 float
37.8635 27.8738 44.7972 37.9181 27.5345 45.4208 38.5031 27.5332 45.0133 
36.7282 27.9261 44.8864 37.2469 27.5279 45.5308 35.6643 27.9296 44.8181 
36.2195 27.5531 45.5332 34.8943 27.8092 44.7195 35.2366 27.5661 45.4095 
34.584 27.4665 45.0605 38.9258 27.8776 44.0306 39.0606 27.55 44.5174 
39.5691 27.5463 43.9757 38.2237 27.9067 43.7882 37.246 27.9195 44.1402 
36.1742 27.9426 44.1193 35.2185 27.8692 44.0905 34.6582 27.4292 44.2937 
39.7087 27.8361 43.042 40.061 27.5386 43.4395 40.2808 27.4452 42.9354 
38.9283 27.9142 42.9644 38.3514 27.6392 43.0134 37.6772 27.5488 43.3893 
36.7185 27.5529 43.477 35.681 27.4514 43.5028 35.0469 27.5601 43.7541 
39.8919 27.6751 42.3056 39.5172 27.3927 41.6814 39.2656 27.793 42.1612 
38.5702 27.5494 42.2678 38.7125 27.262 41.6806 35.7862 26.837 46.8088 
35.9303 26.5119 47.4326 36.4767 26.4976 47.0659 34.7808 26.797 46.7553 
35.3126 26.5027 47.4713 34.5545 26.4597 47.2081 37.9182 27.0058 45.8422 
37.9038 26.4888 46.3977 38.4604 26.4925 46.0095 36.7367 27.0021 46.2214 
37.3104 26.4934 46.6131 35.8007 27.1946 46.0394 34.8674 27.1314 45.9224 
34.1038 26.5863 46.5901 34.056 26.8089 45.9255 33.5857 26.452 46.0657 
39.0333 27.0146 45.0038 38.9865 26.4896 45.5378 39.5004 26.4878 45.0093 
34.1775 26.9629 45.0164 33.4838 26.4986 45.2919 40.0511 27.0116 43.9647 
40.0245 26.4858 44.4862 40.5364 26.4986 43.9844 35.1163 27.0277 43.7591 
35.1798 26.5192 43.8276 34.6175 26.6285 44.2469 33.8329 26.4413 44.6352 
40.7661 26.9339 43.0092 41.044 26.5189 43.4556 41.4262 26.4683 42.7799 
37.9957 27.2861 42.6875 37.2535 27.0248 42.7416 36.3011 26.9531 42.9366 
35.5011 26.462 43.0723 40.9119 26.942 41.9146 41.5273 26.3777 41.6029 
40.2838 27.2996 42.0987 37.9797 27.0324 42.0605 37.455 26.5022 42.0943 
36.7671 26.2784 42.4488 36.1047 26.4083 42.6531 40.975 26.826 41.1072 
41.2502 26.3115 40.8515 40.1161 26.9374 41.146 39.0897 26.4567 41.318 
39.6806 26.5485 40.9185 38.0439 26.4665 41.6382 40.7431 26.5372 40.6452 
40.2219 26.284 40.6745 35.886 26.0242 47.8363 36.156 25.2313 48.317 
36.5213 25.583 47.8881 34.7004 26.0363 47.8739 35.2453 25.3586 48.5196 
33.6968 25.8865 47.8475 34.2204 25.5304 48.5487 32.979 25.7416 47.7593 
33.3055 25.5194 48.4492 32.6481 25.4469 48.074 37.8818 25.9718 46.825 
37.9549 25.2517 47.2658 38.4372 25.4797 46.8327 36.8685 26.0055 47.3082 
37.2738 25.319 47.5979 33.8145 26.2026 46.9431 33.052 25.8774 46.9764 
32.4605 25.5074 47.2627 38.9536 25.9878 46.0176 39.1345 25.1396 46.4563 
39.5192 25.5608 45.8763 33.0347 26.0223 45.8448 32.4289 25.5124 46.2219 
39.9761 25.9888 45.0186 39.9325 25.5007 45.5322 40.4589 25.4795 45.0284 
33.1149 26.009 44.6762 32.4248 25.4178 45.0453 41.0277 26.0008 43.9853 
40.9972 25.4789 44.5036 41.5269 25.4985 43.9893 34.957 26.2484 43.7277 
34.0908 26.0004 43.9027 33.207 25.7433 43.9647 32.6825 25.5196 44.2116 
41.8554 25.8894 43.1679 42.0459 25.5149 43.4427 42.4134 25.4553 42.7936 
34.8362 25.9118 42.9573 34.3999 25.4388 42.9245 33.6187 25.2993 43.4041 
32.9341 25.2786 43.7555 42.0254 25.9616 42.2524 42.3784 25.4657 41.857 
37.4239 25.5292 41.9415 36.9154 25.4516 42.536 35.9213 25.5469 42.5268 
35.1886 25.7452 42.1731 35.2078 25.3486 41.9085 34.8257 25.4293 42.1475 
41.9771 25.7051 41.4881 41.638 25.6189 40.9287 39.7822 26.1018 40.9874 
40.2989 25.5924 40.8635 39.7968 25.4572 41.2499 38.9439 25.3991 41.3175 
38.0581 25.6337 41.3763 35.0021 25.4315 41.7324 40.99 25.5107 40.6065 
27.7725 24.8771 50.768 28.0618 24.4566 51.3563 28.55 24.5942 50.8131 
26.7972 24.8601 50.9899 27.198 24.534 51.5367 26.1882 24.7432 50.7629 
26.2755 24.5308 51.4754 25.6719 24.4297 51.1738 32.7705 24.8687 49.7753 
33.1852 24.2597 50.3283 33.5281 24.6177 49.8902 31.7695 24.8259 49.7353 
32.3083 24.3562 50.4538 31.5389 24.4621 50.1344 28.7885 24.887 49.9017 
29.1411 24.4528 50.39 29.5755 24.5799 49.7773 27.9681 25.0548 49.9875 
27.1525 24.8892 50.0439 26.3383 24.5852 50.1465 25.7424 24.4368 50.5805 
34.6485 24.9573 49.0262 35.1582 24.2378 49.2776 35.3561 24.6937 48.9313 
33.6774 25.0531 49.2112 34.2861 24.3627 49.588 32.7595 25.1861 48.827 
31.9475 25.0381 48.9807 31.0581 24.6114 49.6242 30.9932 24.8809 49.1045 
30.0038 24.8048 48.9494 30.3269 24.5357 49.5202 29.1426 24.879 48.9615 
28.183 24.8841 49.2102 27.4268 24.5997 49.1285 26.7906 24.4674 49.5432 
36.7914 25.0612 48.0935 37.0134 24.3349 48.3428 37.3569 24.6498 47.9523 
36.0829 24.4484 48.6925 32.1103 25.1775 48.0022 31.1979 24.856 48.0455 
30.4128 24.3144 47.9588 29.7173 24.5094 48.3987 28.7927 24.5178 48.4642 
27.9203 24.4525 48.6036 37.8064 24.7267 47.5932 38.4512 24.6988 47.1289 
31.8508 25.034 46.8756 31.3384 24.585 47.0522 30.9585 24.3491 47.4264 
39.9969 25.0801 45.8532 40.0293 24.3463 46.3343 40.5283 24.547 45.8685 
39.2414 24.2517 46.7113 31.9561 24.9805 45.6864 31.4847 24.4105 46.0845 
40.9697 24.9741 45.0267 40.9609 24.4563 45.5509 41.4821 24.4604 45.0265 
32.0128 24.8276 44.8655 31.6611 24.3525 45.0591 42.0228 24.9948 43.9726 
42.0099 24.4792 44.4926 42.5302 24.4977 43.9875 32.3732 24.8552 44.1478 
31.8761 24.333 44.3848 42.8351 24.8849 43.142 43.0409 24.5098 43.4572 
43.4297 24.4686 42.7837 36.6819 24.9308 42.9746 37.422 24.6764 42.642 
37.2247 24.2481 43.3089 36.3555 24.3069 43.4555 36.1065 24.9 42.9934 
35.6297 24.6122 43.0182 34.0304 24.9334 42.6294 33.4538 24.5151 42.7959 
32.9133 24.6466 43.4697 42.9228 25.021 42.0101 43.5455 24.5595 41.6619 
37.5661 24.3054 41.7587 34.864 24.9121 42.3255 34.9594 25.2054 41.8218 
34.4295 24.1158 42.0458 34.1415 24.6377 42.0116 33.7404 24.4763 42.1151 
43.0389 24.7924 41.137 43.4133 24.5278 41.0026 42.3449 25.0886 41.0823 
40.5723 24.7891 40.9856 40.0481 24.4418 41.2521 39.0466 24.8746 41.0482 
39.5691 24.3652 40.9232 38.2197 24.9845 40.9628 37.5914 24.7187 41.1891 
33.9309 24.2128 41.689 42.9192 24.2215 40.4912 41.8254 24.6578 40.5525 
41.2654 24.2276 40.6945 38.7288 24.2701 40.6062 37.8633 24.2711 40.6734 
26.8042 23.8439 52.8171 26.9602 23.5279 53.4317 27.4922 23.5131 53.0377 
25.7206 23.8808 52.9098 26.3058 23.5256 53.5554 24.721 23.89 52.8704 
25.2912 23.5483 53.5798 23.9976 23.7762 52.7811 24.3381 23.5434 53.4764 
23.6812 23.4648 53.1255 28.9008 23.7729 51.8318 29.1966 23.2245 52.2648 
29.5546 23.5684 51.7962 27.8354 24.0046 52.0694 28.319 23.319 52.5493 
26.7961 24.1903 52.0431 25.8742 24.138 51.9758 24.9159 24.023 51.9876 
24.067 23.8668 52.0004 23.4824 23.5162 52.282 31.6383 23.9671 50.7877 
32.189 23.2545 51.2691 32.3765 23.7115 50.9462 30.7016 23.8656 50.8253 
31.2958 23.3183 51.4517 29.7592 23.8663 51.1677 30.3135 23.5008 51.5347 
28.915 24.1696 51.1187 25.0653 24.112 50.842 24.0979 23.8579 50.9952 
23.4281 23.4968 51.2665 33.813 24.1225 50.0789 34.0168 23.3893 50.3363 
34.3635 23.6901 49.9445 33.1083 23.4756 50.7124 30.8874 24.2299 50.0889 
29.9184 24.1754 50.2943 25.8539 24.1626 49.7728 24.9578 23.9867 49.9396 
24.2734 23.7947 49.9338 23.4949 23.4705 50.3124 35.7835 24.1147 49.044 
36.0271 23.3505 49.2869 36.3591 23.6622 48.9346 35.1107 23.4293 49.6563 
26.923 24.1578 48.7233 25.9884 23.986 48.9158 25.1561 23.8167 49.0329 
24.3428 23.5408 49.1384 23.7662 23.415 49.5614 38.0029 24.0928 47.8264 
38.0632 23.3161 48.3129 38.5841 23.5044 47.7923 37.0894 23.3984 48.6926 
29.9668 24.0749 48.004 29.3003 23.984 47.9931 28.0164 23.9808 47.9471 
27.0289 23.9757 47.9269 26.1858 23.8253 47.9994 25.3824 23.542 48.124 
24.7685 23.4301 48.555 38.7804 23.8979 47.2508 38.9805 23.4482 47.4442 
39.3541 23.5154 47.0541 31.0354 24.0535 46.6836 30.5301 23.7428 47.1287 
29.8181 23.5844 47.5111 28.7625 23.4623 47.4718 27.906 23.5413 47.2713 
27.4087 23.4008 46.7699 27.1004 23.7457 47.2663 26.3934 23.5638 47.0924 
25.8039 23.446 47.4886 41.0153 24.0706 45.8562 40.7253 23.6317 46.4064 
41.4754 23.4616 45.9986 40.0318 23.5946 46.6805 31.0919 23.8128 45.9292 
30.5213 23.27 46.0929 26.8203 23.4207 46.6632 42.0039 23.9699 45.0033 
42.0004 23.4529 45.5182 42.5001 23.4761 44.989 31.2926 23.7624 45.2096 
30.928 23.3148 45.4106 43.0246 23.9989 43.9664 43.0106 23.4957 44.4669 
43.5231 23.5016 43.9753 35.6639 23.9514 43.8002 36.3345 23.5704 44.1019 
35.8598 23.535 44.3959 35.3172 23.5084 44.4318 35.0263 23.7397 43.7333 
34.7117 23.2332 44.2036 32.1115 24.0543 43.6271 31.4532 23.5369 44.1312 
43.8448 23.8777 43.1616 44.0308 23.5034 43.4492 44.4418 23.4506 42.796 
37.865 24.0311 42.9929 38.4056 23.4518 42.8269 37.7948 23.6696 43.4051 
37.1039 23.6201 43.7265 35.0323 24.1397 42.9812 34.5225 23.3886 43.0648 
32.8409 23.9882 42.9236 32.2043 23.7203 42.9468 31.6335 23.3601 42.9837 
44.0642 24.0344 42.1761 44.5814 23.5366 41.6984 37.9984 23.9259 42.2917 
38.5149 23.3045 41.9914 34.2646 23.4541 42.0805 33.5423 23.8466 42.0619 
33.0406 23.2407 42.3813 32.0769 23.4769 42.5623 43.9253 24.0362 41.1318 
44.4411 23.5201 41.0235 40.8602 23.996 41.102 41.2943 23.5233 40.947 
40.8628 23.574 41.2218 40.0468 23.9855 41.0257 40.5341 23.4692 41.035 
37.9893 23.3604 41.5663 37.5819 23.5571 41.0126 34.0548 23.7114 41.6691 
43.8217 23.3301 40.3412 43.1505 23.7284 39.9421 43.2825 23.4856 39.8894 
42.7654 23.6286 39.9891 41.9907 23.3656 40.4496 39.7481 23.4342 40.6239 
38.7452 23.3061 40.4338 37.9843 23.4279 40.5374 43.0187 23.523 39.7831 
26.8855 23.0391 53.8366 26.8418 22.1773 54.2728 27.4359 22.5018 53.8276 
25.7672 23.0544 54.0587 25.9828 22.3898 54.3856 24.7472 23.0478 54.067 
24.9686 22.3936 54.4114 23.7269 23.0406 53.8809 23.9524 22.3615 54.4228 
22.7853 22.8422 53.7767 23.0342 22.3793 54.3573 22.3952 22.3861 54.1413 
27.7852 22.9388 53.2538 28.1361 22.1628 53.4125 28.3844 22.6427 52.9049 
22.9869 23.1674 52.9048 21.8926 22.3611 53.6477 21.9432 22.8828 52.891 
21.3942 22.405 53.0847 30.6833 22.9499 52.0008 30.8654 22.5054 52.3734 
31.3589 22.5627 52.0636 29.9112 23.172 52.0523 30.0614 22.6013 52.4835 
29.0366 22.6262 52.6642 22.8024 23.1698 51.7283 21.9807 23.0532 51.9544 
20.9039 22.3784 52.6119 21.1098 22.8574 51.9151 20.4452 22.3949 51.9758 
32.8027 23.1233 51.0795 33.0691 22.3579 51.2894 33.3982 22.6727 50.9504 
[...]
CELL_DATA 21004
SCALARS scalars float
LOOKUP_TABLE default
2003 2003 2003 2003 2003 2003 2003 2003 2003 
2003 2003 2003 2003 2003 2003 2003 2003 2003 
2003 2003 2003 2003 2003 2003 2003 2003 2003 
2003 2003 2003 2003 2003 2003 2003 2003 2003 
2003 2003 2003 2003 2003 2003 2003 2003 2003 
2003 2003 2003 2003 2003 2003 2003 2003 2003 
2003 2003 2003 2003 2003 2003 2003 2003 2003 
2003 2003 2003 2003 2003 2003 2003 2003 2003 
2003 2003 2003 2003 2003 2003 2003 2003 2003 
2003 2003 2003 2003 2003 2003 2003 2003 2003 
2003 2003 2003 2003 2003 2003 2003 2003 2003 
2003 2003 2003 2003 2003 2003 2003 2003 2003 
2003 2003 2003 2003 2003 2003 2003 2003 2003 
2003 2003 2003 2003 2003 2003 2003 2003 2003 
2003 2003 2003 2003 2003 2003 2003 2003 2003 
2003 2003 2003 2003 2003 2003 2003 2003 2003 
2003 2003 2003 2003 2003 2003 2003 2003 2003 
2003 2003 2003 2003 2003 2003 2003 2003 2003 
2003 2003 2003 2003 2003 2003 2003 2003 2003 
2003 2003 2003 2003 2003 2003 2003 2003 2003 
2003 2003 2003 2003 2003 2003 2003 2003 2003 
2003 2003 2003 2003 2003 2003 2003 2003 2003 
2003 2003 2003 2003 2003 2003 2003 2003 2003 
2003 2003 2003 2003 2003 2003 2003 2003 2003 
2003 2003 2003 2003 2003 2003 2003 2003 2003 
2003 2003 2003 2003 2003 2003 2003 2003 2003 
2003 2003 2003 2003 2003 2003 2003 2003 2003 
2003 2003 2003 2003 2003 2003 2003 2003 2003 
2003 2003 2003 2003 2003 2003 2003 2003 2003 
2003 2003 2003 2003 2003 2003 2003 2003 2003 
2003 2003 2003 2003 2003 2003 2003 2003 2003 
2003 2003 2003 2003 2003 2003 2003 2003 2003 
2003 2003 2003 2003 2003 2003 2003 2003 2003 
2003 2003 2003 2003 2003 2003 2003 2003 2003 
2003 2003 2003 2003 2003 2003 2003 2003 2003 
2003 2003 2003 2003 2003 2003 2003 2003 2003 
2003 2003 2003 2003 2003 2003 2003 2003 2003 
2003 2003 2003 2003 2003 2003 2003 2003 2003 
2003 2003 2003 2003 2003 2003 2003 2003 2003 
2003 2003 2003 2003 2003 2003 2003 2003 2003 
2003 2003 2003 2003 2003 2003 2003 2003 2003 
2003 2003 2003 2003 2003 2003 2003 2003 2003 
2003 2003 2003 2003 2003 2003 2003 2003 2003 
2003 2003 2003 2003 2003 2003 2003 2003 2003 
2003 2003 2003 2003 2003 2003 2003 2003 2003 
2003 2003 2003 2003 2003 2003 2003 2003 2003 
2003 2003 2003 2003 2003 2003 2003 2003 2003 
2003 2003 2003 2003 2003 2003 2003 2003 2003 
2003 2003 2003 2003 2003 2003 2003 2003 2003 
2003 2003 2003 2003 2003 2003 2003 2003 2003 
2003 2003 2003 2003 2003 2003 2003 2003 2003 
2003 2003 2003 2003 2003 2003 2003 2003 2003 
2003 2003 2003 2003 2003 2003 2003 2003 2003 
2003 2003 2003 2003 2003 2003 2003 2003 2003 
2003 2003 2003 2003 2003 2003 2003 2003 2003 
2003 2003 2003 2003 2003 2003 2003 2003 2003 
2003 2003 2003 2003 2003 2003 2003 2003 2003 
2003 2003 2003 2003 2003 2003 2003 2003 2003 
2003 2003 2003 2003 2003 2003 2003 2003 2003 
2003 2003 2003 2003 2003 2003 2003 2003 2003 
2003 2003 2003 2003 2003 2003 2003 2003 2003 
2003 2003 2003 2003 2003 2003 2003 2003 2003 
2003 2003 2003 2003 2003 2003 2003 2003 2003 
2003 2003 2003 2003 2003 2003 2003 2003 2003 
2003 2003 2003 2003 2003 2003 2003 2003 2003 
2003 2003 2003 2003 2003 2003 2003 2003 2003 
2003 2003 2003 2003 2003 2003 2003 2003 2003 
2003 2003 2003 2003 2003 2003 2003 2003 2003 
2003 2003 2003 2003 2003 2003 2003 2003 2003 
2003 2003 2003 2003 2003 2003 2003 2003 2003 
2003 2003 2003 2003 2003 2003 2003 2003 2003 
2003 2003 2003 2003 2003 2003 2003 2003 2003 
2003 2003 2003 2003 2003 2003 2003 2003 2003 
2003 2003 2003 2003 2003 2003 2003 2003 2003 
2003 2003 2003 2003 2003 2003 2003 2003 2003 
2003 2003 2003 2003 2003 2003 2003 2003 2003 
2003 2003 2003 2003 2003 2003 2003 2003 2003 
2003 2003 2003 2003 2003 2003 2003 2003 2003 
2003 2003 2003 2003 2003 2003 2003 2003 2003 
2003 2003 2003 2003 2003 2003 2003 2003 2003 
2003 2003 2003 2003 2003 2003 2003 2003 2003 
2003 2003 2003 2003 2003 2003 2003 2003 2003 
2003 2003 2003 2003 2003 2003 2003 2003 2003 
2003 2003 2003 2003 2003 2003 2003 2003 2003 
2003 2003 2003 2003 2003 2003 2003 2003 2003 
2003 2003 2003 2003 2003 2003 2003 2003 2003 
2003 2003 2003 2003 2003 2003 2003 2003 2003 
2003 2003 2003 2003 2003 2003 2003 2003 2003 
2003 2003 2003 2003 2003 2003 2003 2003 2003 
2003 2003 2003 2003 2003 2003 2003 2003 2003 
2003 2003 2003 2003 2003 2003 2003 2003 2003 
2003 2003 2003 2003 2003 2003 2003 2003 2003 
2003 2003 2003 2003 2003 2003 2003 2003 2003 
2003 2003 2003 2003 2003 2003 2003 2003 2003 
2003 2003 2003 2003 2003 2003 2003 2003 2003 
2003 2003 2003 2003 2003 2003 2003 2003 2003 
2003 2003 2003 2003 2003 2003 2003 2003 2003 
2003 2003 2003 2003 2003 2003 2003 2003 2003 
2003 2003 2003 2003 2003 2003 2003 2003 2003 
2003 2003 2003 2003 2003 2003 2003 2003 2003 
2003 2003 2003 2003 2003 2003 2003 2003 2003 
2003 2003 2003 2003 2003 2003 2003 2003 2003 
2003 2003 2003 2003 2003 2003 2003 2003 2003 
2003 2003 2003 2003 2003 2003 2003 2003 2003 
2003 2003 2003 2003 2003 2003 2003 2003 2003 
2003 2003 2003 2003 2003 2003 2003 2003 2003 
2003 2003 2003 2003 2003 2003 2003 2003 2003 
2003 2003 2003 2003 2003 2003 2003 2003 2003 
2003 2003 2003 2003 2003 2003 2003 2003 2003 
2003 2003 2003 2003 2003 2003 2003 2003 2003 
2003 2003 2003 2003 2003 2003 2003 2003 2003 
2003 2003 2003 2003 2003 2003 2003 2003 2003 
2003 2003 2003 2003 2003 2003 2003 2003 2003 
2003 2003 2003 2003 2003 2003 2003 2003 2003 
2003 2003 2003 2003 2003 2003 2003 2003 2003 
2003 2003 2003 2003 2003 2003 2003 2003 2003 
2003 2003 2003 2003 2003 2003 2003 2003 2003 
2003 2003 2003 2003 2003 2003 2003 2003 2003 
2003 2003 2003 2003 2003 2003 2003 2003 2003 
2003 2003 2003 2003 2003 2003 2003 2003 2003 
2003 2003 2003 2003 2003 2003 2003 2003 2003 
2003 2003 2003 2003 2003 2003 2003 2003 2003 
2003 2003 2003 2003 2003 2003 2003 2003 2003 
2003 2003 2003 2003 2003 2003 2003 2003 2003 
2003 2003 2003 2003 2003 2003 2003 2003 2003 
2003 2003 2003 2003 2003 2003 2003 2003 2003 
2003 2003 2003 2003 2003 2003 2003 2003 2003 
2003 2003 2003 2003 2003 2003 2003 2003 2003 
2003 2003 2003 2003 2003 2003 2003 2003 2003 
2003 2003 2003 2003 2003 2003 2003 2003 2003 
2003 2003 2003 2003 2003 2003 2003 2003 2003 
2003 2003 2003 2003 2003 2003 2003 2003 2003 
2003 2003 2003 2003 2003 2003 2003 2003 2003 
2003 2003 2003 2003 2003 2003 2003 2003 2003 
2003 2003 2003 2003 2003 2003 2003 2003 2003 
2003 2003 2003 2003 2003 2003 2003 2003 2003 
2003 2003 2003 2003 2003 2003 2003 2003 2003 
2003 2003 2003 2003 2003 2003 2003 2003 2003 
2003 2003 2003 2003 2003 2003 2003 2003 2003 
2003 2003 2003 2003 2003 2003 2003 2003 2003 
2003 2003 2003 2003 2003 2003 2003 2003 2003 
2003 2003 2003 2003 2003 2003 2003 2003 2003 
2003 2003 2003 2003 2003 2003 2003 2003 2003 
2003 2003 2003 2003 2003 2003 2003 2003 2003 
2003 2003 2003 2003 2003 2003 2003 2003 2003 
2003 2003 2003 2003 2003 2003 2003 2003 2003 
2003 2003 2003 2003 2003 2003 2003 2003 2003 
2003 2003 2003 2003 2003 2003 2003 2003 2003 
2003 2003 2003 2003 2003 2003 2003 2003 2003 
2003 2003 2003 2003 2003 2003 2003 2003 2003 
2003 2003 2003 2003 2003 2003 2003 2003 2003 
2003 2003 2003 2003 2003 2003 2003 2003 2003 
2003 2003 2003 2003 2003 2003 2003 2003 2003 
2003 2003 2003 2003 2003 2003 2003 2003 2003 
2003 2003 2003 2003 2003 2003 2003 2003 2003 
2003 2003 2003 2003 2003 2003 2003 2003 2003 
2003 2003 2003 2003 2003 2003 2003 2003 2003 
2003 2003 2003 2003 2003 2003 2003 2003 2003 
2003 2003 2003 2003 2003 2003 2003 2003 2003 
2003 2003 2003 2003 2003 2003 2003 2003 2003 
2003 2003 2003 2003 2003 2003 2003 2003 2003 
2003 2003 2003 2003 2003 2003 2003 2003 2003 
2003 2003 2003 2003 2003 2003 2003 2003 2003 
2003 2003 2003 2003 2003 2003 2003 2003 2003 
2003 2003 2003 2003 2003 2003 2003 2003 2003 
2003 2003 2003 2003 2003 2003 2003 2003 2003 
2003 2003 2003 2003 2003 2003 2003 2003 2003 
2003 2003 2003 2003 2003 2003 2003 2003 2003 
2003 2003 2003 2003 2003 2003 2003 2003 2003 
2003 2003 2003 2003 2003 2003 2003 2003 2003 
2003 2003 2003 2003 2003 2003 2003 2003 2003 
2003 2003 2003 2003 2003 2003 2003 2003 2003 
2003 2003 2003 2003 2003 2003 2003 2003 2003 
2003 2003 2003 2003 2003 2003 2003 2003 2003 
2003 2003 2003 2003 2003 2003 2003 2003 2003 
2003 2003 2003 2003 2003 2003 2003 2003 2003 
2003 2003 2003 2003 2003 2003 2003 2003 2003 
2003 2003 2003 2003 2003 2003 2003 2003 2003 
2003 2003 2003 2003 2003 2003 2003 2003 2003 
2003 2003 2003 2003 2003 2003 2003 2003 2003 
2003 2003 2003 2003 2003 2003 2003 2003 2003 
2003 2003 2003 2003 2003 2003 2003 2003 2003 
2003 2003 2003 2003 2003 2003 2003 2003 2003 
2003 2003 2003 2003 2003 2003 2003 2003 2003 
2003 2003 2003 2003 2003 2003 2003 2003 2003 
2003 2003 2003 2003 2003 2003 2003 2003 2003 
2003 2003 2003 2003 2003 2003 2003 2003 2003 
2003 2003 2003 2003 2003 2003 2003 2003 2003 
2003 2003 2003 2003 2003 2003 2003 2003 2003 
2003 2003 2003 2003 2003 2003 2003 2003 2003 
2003 2003 2003 2003 2003 2003 2003 2003 2003 
2003 2003 2003 2003 2003 2003 2003 2003 2003 
2003 2003 2003 2003 2003 2003 2003 2003 2003 
2003 2003 2003 2003 2003 2003 2003 2003 2003 
2003 2003 2003 2003 2003 2003 2003 2003 2003 
2003 2003 2003 2003 2003 2003 2003 2003 2003 
2003 2003 2003 2003 2003 2003 2003 2003 2003 
2003 2003 2003 2003 2003 2003 2003 2003 2003 
2003 2003 2003 2003 2003 2003 2003 2003 2003 
2003 2003 2003 2003 2003 2003 2003 2003 2003 
2003 2003 2003 2003 2003 2003 2003 2003 2003 
2003 2003 2003 2003 2003 2003 2003 2003 2003 
2003 2003 2003 2003 2003 2003 2003 2003 2003 
2003 2003 2003 2003 2003 2003 2003 2003 2003 
2003 2003 2003 2003 2003 2003 2003 2003 2003 
2003 2003 2003 2003 2003 2003 2003 2003 2003 
2003 2003 2003 2003 2003 2003 2003 2003 2003 
2003 2003 2003 2003 2003 2003 2003 2003 2003 
2003 2003 2003 2003 2003 2003 2003 2003 2003 
2003 2003 2003 2003 2003 2003 2003 2003 2003 
2003 2003 2003 2003 2003 2003 2003 2003 2003 
2003 2003 2003 2003 2003 2003 2003 2003 2003 
2003 2003 2003 2003 2003 2003 2003 2003 2003 
2003 2003 2003 2003 2003 2003 2003 2003 2003 
2003 2003 2003 2003 2003 2003 2003 2003 2003 
2003 2003 2003 2003 2003 2003 2003 2003 2003 
2003 2003 2003 2003 2003 2003 2003 2003 2003 
2003 2003 2003 2003 2003 2003 2003 2003 2003 
2003 2003 2003 2003 2003 2003 2003 2003 2003 
2003 2003 2003 2003 2003 2003 2003 2003 2003 
2003 2003 2003 2003 2003 2003 2003 2003 2003 
2003 2003 2003 2003 2003 2003 2003 2003 2003 
2003 2003 2003 2003 2003 2003 2003 2003 2003 
2003 2003 2003 2003 2003 2003 2003 2003 2003 
2003 2003 2003 2003 2003 2003 2003 2003 2003 
2003 2003 2003 2003 2003 2003 2003 2003 2003 
2003 2003 2003 2003 2003 2003 2003 2003 2003 
2003 2003 2003 2003 2003 2003 2003 2003 2003 
2003 2003 2003 2003 2003 2003 2003 2003 2003 
2003 2003 2003 2003 2003 2003 2003 2003 2003 
2003 2003 2003 2003 2003 2003 2003 2003 2003 
2003 2003 2003 2003 2003 2003 2003 2003 2003 
2003 2003 2003 2003 2003 2003 2003 2003 2003 
2003 2003 2003 2003 2003 2003 2003 2003 2003 
2003 2003 2003 2003 2003 2003 2003 2003 2003 
2003 2003 2003 2003 2003 2003 2003 2003 2003 
2003 2003 2003 2003 2003 2003 2003 2003 2003 
2003 2003 2003 2003 2003 2003 2003 2003 2003 
2003 2003 2003 2003 2003 2003 2003 2003 2003 
2003 2003 2003 2003 2003 2003 2003 2003 2003 
2003 2003 2003 2003 2003 2003 2003 2003 2003 
2003 2003 2003 2003 2003 2003 2003 2003 2003 
2003 2003 2003 2003 2003 2003 2003 2003 2003 
2003 2003 2003 2003 2003 2003 2003 2003 2003 
2003 2003 2003 2003 2003 2003 2003 2003 2003 
2003 2003 2003 2003 2003 2003 2003 2003 2003 
2003 2003 2003 2003 2003 2003 2003 2003 2003 
2003 2003 2003 2003 2003 2003 2003 2003 2003 
2003 2003 2003 2003 2003 2003 2003 2003 2003 
2003 2003 2003 2003 2003 2003 2003 2003 2003 
2003 2003 2003 2003 2003 2003 2003 2003 2003 
2003 2003 2003 2003 2003 2003 2003 2003 2003 
2003 2003 2003 2003 2003 2003 2003 2003 2003 
2003 2003 2003 2003 2003 2003 2003 2003 2003 
2003 2003 2003 2003 2003 2003 2003 2003 2003 
2003 2003 2003 2003 2003 2003 2003 2003 2003 
2003 2003 2003 2003 2003 2003 2003 2003 2003 
2003 2003 2003 2003 2003 2003 2003 2003 2003 
2003 2003 2003 2003 2003 2003 2003 2003 2003 
2003 2003 2003 2003 2003 2003 2003 2003 2003 
2003 2003 2003 2003 2003 2003 2003 2003 2003 
2003 2003 2003 2003 2003 2003 2003 2003 2003 
2003 2003 2003 2003 2003 2003 2003 2003 2003 
2003 2003 2003 2003 2003 2003 2003 2003 2003 
2003 2003 2003 2003 2003 2003 2003 2003 2003 
2003 2003 2003 2003 2003 2003 2003 2003 2003 
2003 2003 2003 2003 2003 2003 2003 2003 2003 
2003 2003 2003 2003 2003 2003 2003 2003 2003 
2003 2003 2003 2003 2003 2003 2003 2003 2003 
2003 2003 2003 2003 2003 2003 2003 2003 2003 
2003 2003 2003 2003 2003 2003 2003 2003 2003 
2003 2003 2003 2003 2003 2003 2003 2003 2003 
2003 2003 2003 2003 2003 2003 2003 2003 2003 
2003 2003 2003 2003 2003 2003 2003 2003 2003 
2003 2003 2003 2003 2003 2003 2003 2003 2003 
2003 2003 2003 2003 2003 2003 2003 2003 2003 
2003 2003 2003 2003 2003 2003 2003 2003 2003 
2003 2003 2003 2003 2003 2003 2003 2003 2003 
2003 2003 2003 2003 2003 2003 2003 2003 2003 
2003 2003 2003 2003 2003 2003 2003 2003 2003 
2003 2003 2003 2003 2003 2003 2003 2003 2003 
2003 2003 2003 2003 2003 2003 2003 2003 2003 
2003 2003 2003 2003 2003 2003 2003 2003 2003 
2003 2003 2003 2003 2003 2003 2003 2003 2003 
2003 2003 2003 2003 2003 2003 2003 2003 2003 
2003 2003 2003 2003 2003 2003 2003 2003 2003 
2003 2003 2003 2003 2003 2003 2003 2003 2003 
2003 2003 2003 2003 2003 2003 2003 2003 2003 
2003 2003 2003 2003 2003 2003 2003 2003 2003 
2003 2003 2003 2003 2003 2003 2003 2003 2003 
2003 2003 2003 2003 2003 2003 2003 2003 2003 
2003 2003 2003 2003 2003 2003 2003 2003 2003 
2003 2003 2003 2003 2003 2003 2003 2003 2003 
2003 2003 2003 2003 2003 2003 2003 2003 2003 
2003 2003 2003 2003 2003 2003 2003 2003 2003 
2003 2003 2003 2003 2003 2003 2003 2003 2003 
2003 2003 2003 2003 2003 2003 2003 2003 2003 
2003 2003 2003 2003 2003 2003 2003 2003 2003 
2003 2003 2003 2003 2003 2003 2003 2003 2003 
2003 2003 2003 2003 2003 2003 2003 2003 2003 
2003 2003 2003 2003 2003 2003 2003 2003 2003 
2003 2003 2003 2003 2003 2003 2003 2003 2003 
2003 2003 2003 2003 2003 2003 2003 2003 2003 
2003 2003 2003 2003 2003 2003 2003 2003 2003 
2003 2003 2003 2003 2003 2003 2003 2003 2003 
2003 2003 2003 2003 2003 2003 2003 2003 2003 
2003 2003 2003 2003 2003 2003 2003 2003 2003 
2003 2003 2003 2003 2003 2003 2003 2003 2003 
2003 2003 2003 2003 2003 2003 2003 2003 2003 
2003 2003 2003 2003 2003 2003 2003 2003 2003 
2003 2003 2003 2003 2003 2003 2003 2003 2003 
2003 2003 2003 2003 2003 2003 2003 2003 2003 
2003 2003 2003 2003 2003 2003 2003 2003 2003 
2003 2003 2003 2003 2003 2003 2003 2003 2003 
2003 2003 2003 2003 2003 2003 2003 2003 2003 
2003 2003 2003 2003 2003 2003 2003 2003 2003 
2003 2003 2003 2003 2003 2003 2003 2003 2003 
2003 2003 2003 2003 2003 2003 2003 2003 2003 
2003 2003 2003 2003 2003 2003 2003 2003 2003 
2003 2003 2003 2003 2003 2003 2003 2003 2003 
2003 2003 2003 2003 2003 2003 2003 2003 2003 
2003 2003 2003 2003 2003 2003 2003 2003 2003 
2003 2003 2003 2003 2003 2003 2003 2003 2003 
2003 2003 2003 2003 2003 2003 2003 2003 2003 
2003 2003 2003 2003 2003 2003 2003 2003 2003 
2003 2003 2003 2003 2003 2003 2003 2003 2003 
2003 2003 2003 2003 2003 2003 2003 2003 2003 
2003 2003 2003 2003 2003 2003 2003 2003 2003 
2003 2003 2003 2003 2003 2003 2003 2003 2003 
2003 2003 2003 2003 2003 2003 2003 2003 2003 
2003 2003 2003 2003 2003 2003 2003 2003 2003 
2003 2003 2003 2003 2003 2003 2003 2003 2003 
2003 2003 2003 2003 2003 2003 2003 2003 2003 
2003 2003 2003 2003 2003 2003 2003 2003 2003 
2003 2003 2003 2003 2003 2003 2003 2003 2003 
2003 2003 2003 2003 2003 2003 2003 2003 2003 
2003 2003 2003 2003 2003 2003 2003 2003 2003 
2003 2003 2003 2003 2003 2003 2003 2003 2003 
2003 2003 2003 2003 2003 2003 2003 2003 2003 
2003 2003 2003 2003 2003 2003 2003 2003 2003 
2003 2003 2003 2003 2003 2003 2003 2003 2003 
2003 2003 2003 2003 2003 2003 2003 2003 2003 
2003 2003 2003 2003 2003 2003 2003 2003 2003 
2003 2003 2003 2003 2003 2003 2003 2003 2003 
2003 2003 2003 2003 2003 2003 2003 2003 2003 
2003 2003 2003 2003 2003 2003 2003 2003 2003 
2003 2003 2003 2003 2003 2003 2003 2003 2003 
2003 2003 2003 2003 2003 2003 2003 2003 2003 
2003 2003 2003 2003 2003 2003 2003 2003 2003 
2003 2003 2003 2003 2003 2003 2003 2003 2003 
2003 2003 2003 2003 2003 2003 2003 2003 2003 
2003 2003 2003 2003 2003 2003 2003 2003 2003 
2003 2003 2003 2003 2003 2003 2003 2003 2003 
2003 2003 2003 2003 2003 2003 2003 2003 2003 
2003 2003 2003 2003 2003 2003 2003 2003 2003 
2003 2003 2003 2003 2003 2003 2003 2003 2003 
2003 2003 2003 2003 2003 2003 2003 2003 2003 
2003 2003 2003 2003 2003 2003 2003 2003 2003 
2003 2003 2003 2003 2003 2003 2003 2003 2003 
2003 2003 2003 2003 2003 2003 2003 2003 2003 
2003 2003 2003 2003 2003 2003 2003 2003 2003 
2003 2003 2003 2003 2003 2003 2003 2003 2003 
2003 2003 2003 2003 2003 2003 2003 2003 2003 
2003 2003 2003 2003 2003 2003 2003 2003 2003 
2003 2003 2003 2003 2003 2003 2003 2003 2003 
2003 2003 2003 2003 2003 2003 2003 2003 2003 
2003 2003 2003 2003 2003 2003 2003 2003 2003 
2003 2003 2003 2003 2003 2003 2003 2003 2003 
2003 2003 2003 2003 2003 2003 2003 2003 2003 
2003 2003 2003 2003 2003 2003 2003 2003 2003 
2003 2003 2003 2003 2003 2003 2003 2003 2003 
2003 2003 2003 2003 2003 2003 2003 2003 2003 
2003 2003 2003 2003 2003 2003 2003 2003 2003 
2003 2003 2003 2003 2003 2003 2003 2003 2003 
2003 2003 2003 2003 2003 2003 2003 2003 2003 
2003 2003 2003 2003 2003 2003 2003 2003 2003 
2003 2003 2003 2003 2003 2003 2003 2003 2003 
2003 2003 2003 2003 2003 2003 2003 2003 2003 
2003 2003 2003 2003 2003 2003 2003 2003 2003 
2003 2003 2003 2003 2003 2003 2003 2003 2003 
2003 2003 2003 2003 2003 2003 2003 2003 2003 
2003 2003 2003 2003 2003 2003 2003 2003 2003 
2003 2003 2003 2003 2003 2003 2003 2003 2003 
2003 2003 2003 2003 2003 2003 2003 2003 2003 
2003 2003 2003 2003 2003 2003 2003 2003 2003 
2003 2003 2003 2003 2003 2003 2003 2003 2003 
2003 2003 2003 2003 2003 2003 2003 2003 2003 
2003 2003 2003 2003 2003 2003 2003 2003 2003 
2003 2003 2003 2003 2003 2003 2003 2003 2003 
2003 2003 2003 2003 2003 2003 2003 2003 2003 
2003 2003 2003 2003 2003 2003 2003 2003 2003 
2003 2003 2003 2003 2003 2003 2003 2003 2003 
2003 2003 2003 2003 2003 2003 2003 2003 2003 
2003 2003 2003 2003 2003 2003 2003 2003 2003 
2003 2003 2003 2003 2003 2003 2003 2003 2003 
2003 2003 2003 2003 2003 2003 2003 2003 2003 
2003 2003 2003 2003 2003 2003 2003 2003 2003 
2003 2003 2003 2003 2003 2003 2003 2003 2003 
2003 2003 2003 2003 2003 2003 2003 2003 2003 
2003 2003 2003 2003 2003 2003 2003 2003 2003 
2003 2003 2003 2003 2003 2003 2003 2003 2003 
2003 2003 2003 2003 2003 2003 2003 2003 2003 
2003 2003 2003 2003 2003 2003 2003 2003 2003 
2003 2003 2003 2003 2003 2003 2003 2003 2003 
2003 2003 2003 2003 2003 2003 2003 2003 2003 
2003 2003 2003 2003 2003 2003 2003 2003 2003 
2003 2003 2003 2003 2003 2003 2003 2003 2003 
2003 2003 2003 2003 2003 2003 2003 2003 2003 
2003 2003 2003 2003 2003 2003 2003 2003 2003 
2003 2003 2003 2003 2003 2003 2003 2003 2003 
2003 2003 2003 2003 2003 2003 2003 2003 2003 
2003 2003 2003 2003 2003 2003 2003 2003 2003 
2003 2003 2003 2003 2003 2003 2003 2003 2003 
2003 2003 2003 2003 2003 2003 2003 2003 2003 
2003 2003 2003 2003 2003 2003 2003 2003 2003 
2003 2003 2003 2003 2003 2003 2003 2003 2003 
2003 2003 2003 2003 2003 2003 2003 2003 2003 
2003 2003 2003 2003 2003 2003 2003 2003 2003 
2003 2003 2003 2003 2003 2003 2003 2003 2003 
2003 2003 2003 2003 2003 2003 2003 2003 2003 
2003 2003 2003 2003 2003 2003 2003 2003 2003 
2003 2003 2003 2003 2003 2003 2003 2003 2003 
2003 2003 2003 2003 2003 2003 2003 2003 2003 
2003 2003 2003 2003 2003 2003 2003 2003 2003 
2003 2003 2003 2003 2003 2003 2003 2003 2003 
2003 2003 2003 2003 2003 2003 2003 2003 2003 
2003 2003 2003 2003 2003 2003 2003 2003 2003 
2003 2003 2003 2003 2003 2003 2003 2003 2003 
2003 2003 2003 2003 2003 2003 2003 2003 2003 
2003 2003 2003 2003 2003 2003 2003 2003 2003 
2003 2003 2003 2003 2003 2003 2003 2003 2003 
2003 2003 2003 2003 2003 2003 2003 2003 2003 
2003 2003 2003 2003 2003 2003 2003 2003 2003 