# vtk DataFile Version 4.0
vtk output
ASCII
DATASET POLYDATA
POINTS 10596 float
10.0089 67.6774 -21.0564 9.97538 67.2097 -20.5921 10.1709 67.3883 -21.1141 
9.58303 67.3231 -21.1765 10.0117 67.5502 -21.2695 13.0596 66.6869 -19.0422 
13.1445 66.4619 -18.6134 13.3111 66.2623 -18.994 12.6858 66.3752 -18.967 
12.904 66.3362 -19.3322 11.9129 66.3485 -19.86 12.1545 66.5008 -20.0339 
11.7992 66.6846 -19.9553 10.8565 66.8205 -20.1647 11.2401 66.4335 -19.6578 
10.0668 66.9304 -20.0026 10.318 66.5353 -19.5591 9.59877 66.6365 -19.914 
11.7229 66.4636 -20.2694 11.134 66.4434 -20.5409 10.5152 66.5076 -20.9357 
8.7498 66.9054 -21.3029 9.16348 66.8088 -20.6068 8.52605 66.4723 -20.8565 
9.91204 66.8874 -21.4936 9.14066 66.9199 -21.8104 9.45849 66.2289 -22.0851 
8.05357 66.5727 -21.3566 8.09712 66.803 -21.9185 6.81721 66.8348 -22.1448 
7.10088 66.4223 -21.7171 5.84223 66.8618 -22.2417 6.10582 66.6348 -21.8314 
5.61443 66.324 -22.2557 8.7929 66.5512 -22.3175 7.9348 66.4094 -22.4559 
6.94311 66.5045 -22.4826 6.4748 66.1792 -22.8065 6.1426 66.8058 -22.7375 
5.58619 66.5608 -22.7752 5.9552 66.244 -23.2821 11.9221 65.8128 -17.2641 
12.1402 65.2932 -16.7557 12.5482 65.4257 -17.1794 11.5954 65.1844 -16.9161 
12.6908 66.0316 -17.993 12.9938 65.4109 -17.7121 13.3545 65.6913 -18.3703 
11.8146 66.0335 -18.1021 10.9627 65.428 -17.3657 10.866 65.9256 -17.9523 
9.76119 65.8223 -18.2273 10.2275 65.5321 -17.6997 9.54431 65.2059 -17.9909 
13.4045 65.4043 -19.0539 12.0158 65.978 -18.919 11.0579 66.0817 -18.9589 
9.87582 66.1434 -19.0193 9.10067 65.5183 -18.471 8.8744 65.8587 -19.1024 
8.51086 65.2277 -18.9627 13.0564 65.699 -19.4126 11.911 66.1163 -20.123 
12.3824 65.6465 -19.5608 11.6651 65.798 -19.7643 8.83306 66.2126 -20.0393 
8.1123 65.5322 -19.4792 8.08078 65.8092 -20.0535 7.69036 65.2757 -19.9838 
11.3667 65.6269 -20.5582 10.7151 65.4098 -21.1388 7.91103 66.0682 -20.9974 
7.44597 65.2241 -20.8779 10.1131 65.6189 -21.5682 9.52896 65.18 -22.223 
7.38344 65.7359 -22.162 6.79023 66.2235 -22.1943 6.16863 66.2427 -22.0521 
8.87783 65.8445 -22.6635 8.07427 65.8142 -22.9148 8.64278 65.3567 -23.1623 
7.26943 65.7867 -23.0223 6.73576 65.4298 -22.648 5.97597 65.6978 -22.5313 
5.59374 65.5054 -23.1031 7.97803 65.3571 -23.4137 6.82039 65.5888 -23.6057 
5.98024 65.6925 -23.6156 11.903 64.3982 -16.6749 12.3722 64.7188 -16.9235 
11.3428 64.436 -16.8662 13.1745 64.9425 -18.1748 12.7325 64.5782 -17.6309 
10.8504 64.6185 -17.2442 10.13 64.8022 -17.6055 9.46016 64.2512 -17.9902 
13.0829 64.1385 -18.4466 13.3364 64.5396 -18.8736 8.95478 64.7637 -18.4577 
8.43161 64.2734 -18.9695 12.8152 64.6202 -19.5591 12.0118 64.9656 -20.0652 
12.2485 64.2604 -19.9708 7.93556 64.7936 -19.4746 7.44287 64.345 -20.2754 
11.664 64.3624 -20.432 11.1677 64.8594 -20.9712 11.2343 64.2864 -20.9307 
7.04003 64.6311 -20.8079 7.02474 64.7136 -21.1784 6.86266 64.5016 -21.077 
10.6513 64.5921 -21.3034 9.99431 64.6529 -21.6716 9.66173 64.2978 -22.0236 
7.18716 64.4274 -21.6218 6.96877 64.4643 -21.3182 9.11782 65.0715 -22.9066 
9.32878 64.2794 -22.8006 6.9001 64.5582 -22.4175 6.11342 64.6614 -22.7981 
5.57717 64.5838 -23.1117 8.76537 64.7024 -23.3577 7.96776 64.6387 -23.7723 
7.06651 64.8778 -24.0275 7.62633 64.3124 -24.1412 5.98342 65.0665 -23.9477 
5.28466 64.4083 -23.4537 5.15873 64.7359 -24.1186 4.68729 64.2528 -23.7842 
6.78633 64.3008 -24.3915 5.62298 64.4518 -24.4623 4.87411 64.3339 -24.3463 
11.8316 63.2322 -16.6181 12.3598 63.7894 -17.0905 10.8179 63.9258 -17.0524 
11.2468 63.6599 -16.6793 10.5181 63.1597 -16.9991 12.7332 63.5641 -17.881 
10.1121 63.7741 -17.4955 9.43412 63.2429 -17.9906 13.0952 63.3852 -18.4224 
13.2908 63.3219 -18.9277 8.93662 63.7497 -18.4796 8.46365 63.1827 -19.1626 
12.9151 63.4637 -19.379 12.3088 63.6045 -19.7127 11.9992 63.8773 -19.9987 
11.6049 63.2535 -20.0567 7.95788 63.7925 -19.5588 7.67788 63.2403 -20.2669 
11.1552 63.6008 -20.6436 10.8132 63.866 -21.0887 10.4889 63.1178 -21.1957 
7.07075 64.2513 -21.0206 7.29503 63.4894 -21.021 10.1263 63.8099 -21.565 
9.63769 63.4103 -22.3674 6.94782 63.5287 -21.6221 6.70371 63.8787 -22.1052 
6.07837 63.6421 -22.193 6.30111 63.3996 -21.854 5.83155 63.4767 -22.0567 
9.35696 63.2506 -23.2563 6.23221 63.5042 -22.6673 5.79975 64.049 -23.1266 
5.90081 63.4859 -22.2947 4.84376 63.8897 -23.1675 4.89207 63.4624 -22.8986 
5.17172 63.4846 -23.101 4.66607 63.3828 -23.3452 8.87145 63.8039 -23.6147 
8.23616 63.8882 -24.0167 8.65552 63.3027 -24.1109 5.68151 63.4677 -23.257 
4.52898 63.5303 -24.1796 7.91606 63.5158 -24.3862 7.00272 63.4086 -24.6986 
5.97384 63.7074 -24.7372 5.03448 63.6617 -24.6622 11.7202 62.3594 -16.4655 
12.4811 62.7033 -17.0299 11.0865 62.6795 -16.5887 10.4177 62.1981 -16.9718 
12.9567 62.9206 -17.9035 13.201 62.3104 -17.5069 13.3293 62.6639 -18.3301 
9.91616 62.7044 -17.4905 9.4202 62.1865 -18.1609 13.3854 62.1829 -19.1188 
8.96535 62.7942 -18.553 8.68562 62.2505 -19.2816 12.8642 62.5478 -19.5222 
12.1488 62.7259 -19.7095 11.4331 62.4072 -20.1406 8.05344 62.9976 -19.8428 
8.31655 62.2852 -20.0911 10.9433 62.7198 -20.5824 10.6186 62.4347 -21.2545 
7.91212 62.5622 -20.4267 7.56012 62.6491 -20.867 9.99408 63.0565 -21.8566 
10.2951 62.587 -21.7819 7.02659 62.5847 -21.5624 6.12908 63.1331 -22.0939 
6.53357 62.4899 -22.2428 10.0649 62.4377 -22.4215 9.6255 62.4083 -23.1888 
6.16921 62.3976 -22.699 5.85546 62.8673 -23.1185 4.95977 63.1773 -22.9933 
5.56598 62.1299 -23.0419 9.10718 63.0173 -23.8958 9.30262 62.4019 -23.9119 
5.17387 62.7611 -23.3152 4.57122 62.4865 -23.8996 8.76575 62.6723 -24.3416 
7.98202 62.6314 -24.7343 7.11535 62.8548 -24.9918 7.60583 62.3532 -25.1304 
6.26662 63.0461 -25.0635 5.28216 63.0066 -25.0745 4.45117 62.5083 -24.7479 
6.82385 62.3111 -25.3846 5.67695 62.4122 -25.4506 4.68035 62.2726 -25.3816 
12.0301 61.8082 -16.2224 11.9492 61.3919 -15.8436 12.343 61.3992 -16.1419 
11.6777 61.4078 -15.9321 13.6826 61.7528 -17.0744 14.0981 61.3332 -16.5504 
14.2407 61.2398 -17.2511 12.8805 61.9584 -16.6913 13.1574 61.4078 -16.3796 
11.2431 61.5716 -16.4395 10.5096 61.5218 -16.9808 13.9857 61.4858 -17.5067 
13.6839 61.7322 -18.1362 10.1048 61.5401 -17.5064 9.61067 61.2427 -18.2891 
13.6886 61.4827 -19.1925 9.01492 62.048 -18.8201 9.26507 61.3297 -19.091 
12.8353 61.9273 -20.0369 13.4298 61.6056 -19.8214 12.0154 62.1167 -20.1469 
8.9059 61.6097 -19.4274 8.69753 61.5553 -20.1121 13.0818 61.376 -20.5579 
12.4595 61.4617 -21.0745 12.0008 61.7758 -20.9265 11.1684 62.1196 -20.8156 
7.8988 62.0616 -20.9632 8.40531 61.5659 -20.8246 12.0521 61.3677 -21.5604 
11.418 61.486 -22.0784 10.9504 61.9627 -21.7921 7.99937 61.4332 -21.5626 
7.12368 61.8815 -21.9844 7.47478 61.465 -22.0511 10.9077 61.4922 -22.5658 
10.0671 61.9152 -22.9866 10.3947 61.4985 -23.0658 6.84233 61.4449 -22.428 
5.7937 61.4338 -22.5169 5.28576 61.3878 -22.9372 10.1206 61.4477 -23.4498 
9.61191 61.5523 -23.9747 4.95857 61.7562 -23.442 4.41997 61.2961 -24.0192 
8.96926 61.6422 -24.5557 8.21158 61.9151 -25.0061 8.48833 61.1547 -25.0664 
3.96694 61.5702 -24.7773 4.03479 61.9263 -25.1842 3.71927 61.2921 -25.0549 
7.70666 61.5746 -25.397 7.01416 61.567 -25.5919 6.12375 61.5632 -25.7349 
4.85982 61.4964 -25.7284 4.02048 61.4358 -25.4158 14.6903 60.815 -16.0891 
15.2519 60.2683 -15.6768 15.357 60.5055 -16.0004 13.7266 61.0448 -15.9656 
14.1275 60.3119 -15.4472 12.9027 60.8519 -16.06 13.197 60.5281 -15.7152 
11.8042 61.19 -16.0025 12.519 60.1436 -16.1804 15.2611 60.3266 -16.409 
14.687 60.6756 -16.9789 12.0036 60.7996 -16.432 10.9411 60.9549 -16.9947 
11.4303 60.4399 -17.0082 14.1911 61.124 -18.0619 14.616 60.691 -17.9437 
10.9288 60.4253 -17.528 10.0639 60.8715 -17.9361 10.3283 60.3882 -18.1652 
14.6562 60.8096 -18.9927 14.9653 60.4873 -18.561 15.3883 60.4262 -19.243 
14.0209 61.1476 -18.8839 9.84359 60.6327 -18.4393 9.64307 60.6139 -19.104 
15.0302 60.7285 -19.8757 15.577 60.3677 -20.0865 14.1033 61.0223 -19.9047 
9.04574 61.1063 -19.9761 9.47847 60.5649 -20.1701 14.9862 60.3837 -20.3959 
13.9554 60.5507 -20.6804 12.9733 60.9967 -21.0655 13.4873 60.4992 -21.0288 
8.90865 60.9319 -20.8583 9.41423 60.4367 -20.9848 13.0101 60.4949 -21.5239 
11.9701 60.9899 -22.07 12.5263 60.4931 -22.0317 9.03928 60.4564 -21.5729 
8.00349 60.9855 -22.0748 8.56918 60.4889 -22.0801 6.11771 60.9209 -22.2251 
6.12023 60.4978 -21.7467 6.42899 60.3021 -22.2778 5.54847 60.3034 -22.0243 
12.0018 60.5005 -22.5499 10.9391 60.9992 -23.0641 11.5067 60.4961 -23.0535 
8.00407 60.5471 -22.5576 7.10762 60.8136 -22.952 7.5066 60.5491 -23.0638 
6.53675 60.5215 -22.9085 4.89376 61.0223 -23.218 5.17811 60.7447 -22.7197 
4.75666 60.4393 -23.3218 11.0236 60.5131 -23.5719 10.1542 60.9064 -23.9809 
10.5995 60.3301 -24.1447 7.12081 60.2577 -23.4281 4.36277 60.3761 -23.9148 
9.79405 60.4443 -24.41 9.02803 60.6356 -24.7287 8.5141 60.1922 -25.0649 
3.90638 60.8014 -24.5313 3.63369 60.4632 -24.8849 8.01005 60.6493 -25.4042 
7.11114 60.6372 -25.5808 6.10935 60.8907 -26.0451 6.42506 60.1876 -25.9414 
5.30876 60.9792 -26.1259 4.60724 60.6168 -26.0501 4.01138 60.4057 -25.6031 
5.64629 60.3745 -26.4065 4.96384 60.2909 -26.3727 13.7733 59.7403 -15.0031 
14.1753 59.1927 -14.6728 14.406 59.6586 -14.9636 13.4601 59.125 -15.1245 
15.7914 60.0031 -15.9984 15.8678 59.6498 -15.5606 16.2757 59.3545 -15.9719 
15.1459 59.6637 -15.2356 13.1184 59.8214 -15.5344 12.6813 59.4754 -16.2289 
15.749 59.6467 -16.5668 15.1524 59.9695 -17.0122 15.5335 59.4695 -17.3592 
11.8795 60.0618 -16.9374 12.3702 59.5684 -16.7807 15.1169 60.0884 -17.9867 
15.5894 59.5423 -18.13 11.9826 59.4722 -17.5338 10.9446 59.9532 -18.1986 
11.5492 59.4988 -18.3672 15.7689 59.8614 -18.8837 16.1083 59.4078 -18.6387 
16.4574 59.3169 -19.4151 10.8486 59.7944 -18.9655 11.3758 59.5082 -18.9298 
10.1896 60.1831 -18.8131 16.0143 59.9486 -19.7745 16.3085 59.2966 -20.0871 
11.1138 59.4055 -19.5344 10.1756 59.9863 -19.7725 10.5892 59.3131 -20.3944 
15.7933 59.7326 -20.3767 15.0072 59.6289 -20.7374 14.0321 59.9921 -21.0479 
14.6426 59.3394 -21.1077 9.90322 59.9654 -20.8631 10.2874 59.2581 -21.0696 
[...]
CELL_DATA 21236
SCALARS scalars float
LOOKUP_TABLE default
2012 2012 2012 2012 2012 2012 2012 2012 2012 
2012 2012 2012 2012 2012 2012 2012 2012 2012 
2012 2012 2012 2012 2012 2012 2012 2012 2012 
2012 2012 2012 2012 2012 2012 2012 2012 2012 
2012 2012 2012 2012 2012 2012 2012 2012 2012 
2012 2012 2012 2012 2012 2012 2012 2012 2012 
2012 2012 2012 2012 2012 2012 2012 2012 2012 
2012 2012 2012 2012 2012 2012 2012 2012 2012 
2012 2012 2012 2012 2012 2012 2012 2012 2012 
2012 2012 2012 2012 2012 2012 2012 2012 2012 
2012 2012 2012 2012 2012 2012 2012 2012 2012 
2012 2012 2012 2012 2012 2012 2012 2012 2012 
2012 2012 2012 2012 2012 2012 2012 2012 2012 
2012 2012 2012 2012 2012 2012 2012 2012 2012 
2012 2012 2012 2012 2012 2012 2012 2012 2012 
2012 2012 2012 2012 2012 2012 2012 2012 2012 
2012 2012 2012 2012 2012 2012 2012 2012 2012 
2012 2012 2012 2012 2012 2012 2012 2012 2012 
2012 2012 2012 2012 2012 2012 2012 2012 2012 
2012 2012 2012 2012 2012 2012 2012 2012 2012 
2012 2012 2012 2012 2012 2012 2012 2012 2012 
2012 2012 2012 2012 2012 2012 2012 2012 2012 
2012 2012 2012 2012 2012 2012 2012 2012 2012 
2012 2012 2012 2012 2012 2012 2012 2012 2012 
2012 2012 2012 2012 2012 2012 2012 2012 2012 
2012 2012 2012 2012 2012 2012 2012 2012 2012 
2012 2012 2012 2012 2012 2012 2012 2012 2012 
2012 2012 2012 2012 2012 2012 2012 2012 2012 
2012 2012 2012 2012 2012 2012 2012 2012 2012 
2012 2012 2012 2012 2012 2012 2012 2012 2012 
2012 2012 2012 2012 2012 2012 2012 2012 2012 
2012 2012 2012 2012 2012 2012 2012 2012 2012 
2012 2012 2012 2012 2012 2012 2012 2012 2012 
2012 2012 2012 2012 2012 2012 2012 2012 2012 
2012 2012 2012 2012 2012 2012 2012 2012 2012 
2012 2012 2012 2012 2012 2012 2012 2012 2012 
2012 2012 2012 2012 2012 2012 2012 2012 2012 
2012 2012 2012 2012 2012 2012 2012 2012 2012 
2012 2012 2012 2012 2012 2012 2012 2012 2012 
2012 2012 2012 2012 2012 2012 2012 2012 2012 
2012 2012 2012 2012 2012 2012 2012 2012 2012 
2012 2012 2012 2012 2012 2012 2012 2012 2012 
2012 2012 2012 2012 2012 2012 2012 2012 2012 
2012 2012 2012 2012 2012 2012 2012 2012 2012 
2012 2012 2012 2012 2012 2012 2012 2012 2012 
2012 2012 2012 2012 2012 2012 2012 2012 2012 
2012 2012 2012 2012 2012 2012 2012 2012 2012 
2012 2012 2012 2012 2012 2012 2012 2012 2012 
2012 2012 2012 2012 2012 2012 2012 2012 2012 
2012 2012 2012 2012 2012 2012 2012 2012 2012 
2012 2012 2012 2012 2012 2012 2012 2012 2012 
2012 2012 2012 2012 2012 2012 2012 2012 2012 
2012 2012 2012 2012 2012 2012 2012 2012 2012 
2012 2012 2012 2012 2012 2012 2012 2012 2012 
2012 2012 2012 2012 2012 2012 2012 2012 2012 
2012 2012 2012 2012 2012 2012 2012 2012 2012 
2012 2012 2012 2012 2012 2012 2012 2012 2012 
2012 2012 2012 2012 2012 2012 2012 2012 2012 
2012 2012 2012 2012 2012 2012 2012 2012 2012 
2012 2012 2012 2012 2012 2012 2012 2012 2012 
2012 2012 2012 2012 2012 2012 2012 2012 2012 
2012 2012 2012 2012 2012 2012 2012 2012 2012 
2012 2012 2012 2012 2012 2012 2012 2012 2012 
2012 2012 2012 2012 2012 2012 2012 2012 2012 
2012 2012 2012 2012 2012 2012 2012 2012 2012 
2012 2012 2012 2012 2012 2012 2012 2012 2012 
2012 2012 2012 2012 2012 2012 2012 2012 2012 
2012 2012 2012 2012 2012 2012 2012 2012 2012 
2012 2012 2012 2012 2012 2012 2012 2012 2012 
2012 2012 2012 2012 2012 2012 2012 2012 2012 
2012 2012 2012 2012 2012 2012 2012 2012 2012 
2012 2012 2012 2012 2012 2012 2012 2012 2012 
2012 2012 2012 2012 2012 2012 2012 2012 2012 
2012 2012 2012 2012 2012 2012 2012 2012 2012 
2012 2012 2012 2012 2012 2012 2012 2012 2012 
2012 2012 2012 2012 2012 2012 2012 2012 2012 
2012 2012 2012 2012 2012 2012 2012 2012 2012 
2012 2012 2012 2012 2012 2012 2012 2012 2012 
2012 2012 2012 2012 2012 2012 2012 2012 2012 
2012 2012 2012 2012 2012 2012 2012 2012 2012 
2012 2012 2012 2012 2012 2012 2012 2012 2012 
2012 2012 2012 2012 2012 2012 2012 2012 2012 
2012 2012 2012 2012 2012 2012 2012 2012 2012 
2012 2012 2012 2012 2012 2012 2012 2012 2012 
2012 2012 2012 2012 2012 2012 2012 2012 2012 
2012 2012 2012 2012 2012 2012 2012 2012 2012 
2012 2012 2012 2012 2012 2012 2012 2012 2012 
2012 2012 2012 2012 2012 2012 2012 2012 2012 
2012 2012 2012 2012 2012 2012 2012 2012 2012 
2012 2012 2012 2012 2012 2012 2012 2012 2012 
2012 2012 2012 2012 2012 2012 2012 2012 2012 
2012 2012 2012 2012 2012 2012 2012 2012 2012 
2012 2012 2012 2012 2012 2012 2012 2012 2012 
2012 2012 2012 2012 2012 2012 2012 2012 2012 
2012 2012 2012 2012 2012 2012 2012 2012 2012 
2012 2012 2012 2012 2012 2012 2012 2012 2012 
2012 2012 2012 2012 2012 2012 2012 2012 2012 
2012 2012 2012 2012 2012 2012 2012 2012 2012 
2012 2012 2012 2012 2012 2012 2012 2012 2012 
2012 2012 2012 2012 2012 2012 2012 2012 2012 
2012 2012 2012 2012 2012 2012 2012 2012 2012 
2012 2012 2012 2012 2012 2012 2012 2012 2012 
2012 2012 2012 2012 2012 2012 2012 2012 2012 
2012 2012 2012 2012 2012 2012 2012 2012 2012 
2012 2012 2012 2012 2012 2012 2012 2012 2012 
2012 2012 2012 2012 2012 2012 2012 2012 2012 
2012 2012 2012 2012 2012 2012 2012 2012 2012 
2012 2012 2012 2012 2012 2012 2012 2012 2012 
2012 2012 2012 2012 2012 2012 2012 2012 2012 
2012 2012 2012 2012 2012 2012 2012 2012 2012 
2012 2012 2012 2012 2012 2012 2012 2012 2012 
2012 2012 2012 2012 2012 2012 2012 2012 2012 
2012 2012 2012 2012 2012 2012 2012 2012 2012 
2012 2012 2012 2012 2012 2012 2012 2012 2012 
2012 2012 2012 2012 2012 2012 2012 2012 2012 
2012 2012 2012 2012 2012 2012 2012 2012 2012 
2012 2012 2012 2012 2012 2012 2012 2012 2012 
2012 2012 2012 2012 2012 2012 2012 2012 2012 
2012 2012 2012 2012 2012 2012 2012 2012 2012 
2012 2012 2012 2012 2012 2012 2012 2012 2012 
2012 2012 2012 2012 2012 2012 2012 2012 2012 
2012 2012 2012 2012 2012 2012 2012 2012 2012 
2012 2012 2012 2012 2012 2012 2012 2012 2012 
2012 2012 2012 2012 2012 2012 2012 2012 2012 
2012 2012 2012 2012 2012 2012 2012 2012 2012 
2012 2012 2012 2012 2012 2012 2012 2012 2012 
2012 2012 2012 2012 2012 2012 2012 2012 2012 
2012 2012 2012 2012 2012 2012 2012 2012 2012 
2012 2012 2012 2012 2012 2012 2012 2012 2012 
2012 2012 2012 2012 2012 2012 2012 2012 2012 
2012 2012 2012 2012 2012 2012 2012 2012 2012 
2012 2012 2012 2012 2012 2012 2012 2012 2012 
2012 2012 2012 2012 2012 2012 2012 2012 2012 
2012 2012 2012 2012 2012 2012 2012 2012 2012 
2012 2012 2012 2012 2012 2012 2012 2012 2012 
2012 2012 2012 2012 2012 2012 2012 2012 2012 
2012 2012 2012 2012 2012 2012 2012 2012 2012 
2012 2012 2012 2012 2012 2012 2012 2012 2012 
2012 2012 2012 2012 2012 2012 2012 2012 2012 
2012 2012 2012 2012 2012 2012 2012 2012 2012 
2012 2012 2012 2012 2012 2012 2012 2012 2012 
2012 2012 2012 2012 2012 2012 2012 2012 2012 
2012 2012 2012 2012 2012 2012 2012 2012 2012 
2012 2012 2012 2012 2012 2012 2012 2012 2012 
2012 2012 2012 2012 2012 2012 2012 2012 2012 
2012 2012 2012 2012 2012 2012 2012 2012 2012 
2012 2012 2012 2012 2012 2012 2012 2012 2012 
2012 2012 2012 2012 2012 2012 2012 2012 2012 
2012 2012 2012 2012 2012 2012 2012 2012 2012 
2012 2012 2012 2012 2012 2012 2012 2012 2012 
2012 2012 2012 2012 2012 2012 2012 2012 2012 
2012 2012 2012 2012 2012 2012 2012 2012 2012 
2012 2012 2012 2012 2012 2012 2012 2012 2012 
2012 2012 2012 2012 2012 2012 2012 2012 2012 
2012 2012 2012 2012 2012 2012 2012 2012 2012 
2012 2012 2012 2012 2012 2012 2012 2012 2012 
2012 2012 2012 2012 2012 2012 2012 2012 2012 
2012 2012 2012 2012 2012 2012 2012 2012 2012 
2012 2012 2012 2012 2012 2012 2012 2012 2012 
2012 2012 2012 2012 2012 2012 2012 2012 2012 
2012 2012 2012 2012 2012 2012 2012 2012 2012 
2012 2012 2012 2012 2012 2012 2012 2012 2012 
2012 2012 2012 2012 2012 2012 2012 2012 2012 
2012 2012 2012 2012 2012 2012 2012 2012 2012 
2012 2012 2012 2012 2012 2012 2012 2012 2012 
2012 2012 2012 2012 2012 2012 2012 2012 2012 
2012 2012 2012 2012 2012 2012 2012 2012 2012 
2012 2012 2012 2012 2012 2012 2012 2012 2012 
2012 2012 2012 2012 2012 2012 2012 2012 2012 
2012 2012 2012 2012 2012 2012 2012 2012 2012 
2012 2012 2012 2012 2012 2012 2012 2012 2012 
2012 2012 2012 2012 2012 2012 2012 2012 2012 
2012 2012 2012 2012 2012 2012 2012 2012 2012 
2012 2012 2012 2012 2012 2012 2012 2012 2012 
2012 2012 2012 2012 2012 2012 2012 2012 2012 
2012 2012 2012 2012 2012 2012 2012 2012 2012 
2012 2012 2012 2012 2012 2012 2012 2012 2012 
2012 2012 2012 2012 2012 2012 2012 2012 2012 
2012 2012 2012 2012 2012 2012 2012 2012 2012 
2012 2012 2012 2012 2012 2012 2012 2012 2012 
2012 2012 2012 2012 2012 2012 2012 2012 2012 
2012 2012 2012 2012 2012 2012 2012 2012 2012 
2012 2012 2012 2012 2012 2012 2012 2012 2012 
2012 2012 2012 2012 2012 2012 2012 2012 2012 
2012 2012 2012 2012 2012 2012 2012 2012 2012 
2012 2012 2012 2012 2012 2012 2012 2012 2012 
2012 2012 2012 2012 2012 2012 2012 2012 2012 
2012 2012 2012 2012 2012 2012 2012 2012 2012 
2012 2012 2012 2012 2012 2012 2012 2012 2012 
2012 2012 2012 2012 2012 2012 2012 2012 2012 
2012 2012 2012 2012 2012 2012 2012 2012 2012 
2012 2012 2012 2012 2012 2012 2012 2012 2012 
2012 2012 2012 2012 2012 2012 2012 2012 2012 
2012 2012 2012 2012 2012 2012 2012 2012 2012 
2012 2012 2012 2012 2012 2012 2012 2012 2012 
2012 2012 2012 2012 2012 2012 2012 2012 2012 
2012 2012 2012 2012 2012 2012 2012 2012 2012 
2012 2012 2012 2012 2012 2012 2012 2012 2012 
2012 2012 2012 2012 2012 2012 2012 2012 2012 
2012 2012 2012 2012 2012 2012 2012 2012 2012 
2012 2012 2012 2012 2012 2012 2012 2012 2012 
2012 2012 2012 2012 2012 2012 2012 2012 2012 
2012 2012 2012 2012 2012 2012 2012 2012 2012 
2012 2012 2012 2012 2012 2012 2012 2012 2012 
2012 2012 2012 2012 2012 2012 2012 2012 2012 
2012 2012 2012 2012 2012 2012 2012 2012 2012 
2012 2012 2012 2012 2012 2012 2012 2012 2012 
2012 2012 2012 2012 2012 2012 2012 2012 2012 
2012 2012 2012 2012 2012 2012 2012 2012 2012 
2012 2012 2012 2012 2012 2012 2012 2012 2012 
2012 2012 2012 2012 2012 2012 2012 2012 2012 
2012 2012 2012 2012 2012 2012 2012 2012 2012 
2012 2012 2012 2012 2012 2012 2012 2012 2012 
2012 2012 2012 2012 2012 2012 2012 2012 2012 
2012 2012 2012 2012 2012 2012 2012 2012 2012 
2012 2012 2012 2012 2012 2012 2012 2012 2012 
2012 2012 2012 2012 2012 2012 2012 2012 2012 
2012 2012 2012 2012 2012 2012 2012 2012 2012 
2012 2012 2012 2012 2012 2012 2012 2012 2012 
2012 2012 2012 2012 2012 2012 2012 2012 2012 
2012 2012 2012 2012 2012 2012 2012 2012 2012 
2012 2012 2012 2012 2012 2012 2012 2012 2012 
2012 2012 2012 2012 2012 2012 2012 2012 2012 
2012 2012 2012 2012 2012 2012 2012 2012 2012 
2012 2012 2012 2012 2012 2012 2012 2012 2012 
2012 2012 2012 2012 2012 2012 2012 2012 2012 
2012 2012 2012 2012 2012 2012 2012 2012 2012 
2012 2012 2012 2012 2012 2012 2012 2012 2012 
2012 2012 2012 2012 2012 2012 2012 2012 2012 
2012 2012 2012 2012 2012 2012 2012 2012 2012 
2012 2012 2012 2012 2012 2012 2012 2012 2012 
2012 2012 2012 2012 2012 2012 2012 2012 2012 
2012 2012 2012 2012 2012 2012 2012 2012 2012 
2012 2012 2012 2012 2012 2012 2012 2012 2012 
2012 2012 2012 2012 2012 2012 2012 2012 2012 
2012 2012 2012 2012 2012 2012 2012 2012 2012 
2012 2012 2012 2012 2012 2012 2012 2012 2012 
2012 2012 2012 2012 2012 2012 2012 2012 2012 
2012 2012 2012 2012 2012 2012 2012 2012 2012 
2012 2012 2012 2012 2012 2012 2012 2012 2012 
2012 2012 2012 2012 2012 2012 2012 2012 2012 
2012 2012 2012 2012 2012 2012 2012 2012 2012 
2012 2012 2012 2012 2012 2012 2012 2012 2012 
2012 2012 2012 2012 2012 2012 2012 2012 2012 
2012 2012 2012 2012 2012 2012 2012 2012 2012 
2012 2012 2012 2012 2012 2012 2012 2012 2012 
2012 2012 2012 2012 2012 2012 2012 2012 2012 
2012 2012 2012 2012 2012 2012 2012 2012 2012 
2012 2012 2012 2012 2012 2012 2012 2012 2012 
2012 2012 2012 2012 2012 2012 2012 2012 2012 
2012 2012 2012 2012 2012 2012 2012 2012 2012 
2012 2012 2012 2012 2012 2012 2012 2012 2012 
2012 2012 2012 2012 2012 2012 2012 2012 2012 
2012 2012 2012 2012 2012 2012 2012 2012 2012 
2012 2012 2012 2012 2012 2012 2012 2012 2012 
2012 2012 2012 2012 2012 2012 2012 2012 2012 
2012 2012 2012 2012 2012 2012 2012 2012 2012 
2012 2012 2012 2012 2012 2012 2012 2012 2012 
2012 2012 2012 2012 2012 2012 2012 2012 2012 
2012 2012 2012 2012 2012 2012 2012 2012 2012 
2012 2012 2012 2012 2012 2012 2012 2012 2012 
2012 2012 2012 2012 2012 2012 2012 2012 2012 
2012 2012 2012 2012 2012 2012 2012 2012 2012 
2012 2012 2012 2012 2012 2012 2012 2012 2012 
2012 2012 2012 2012 2012 2012 2012 2012 2012 
2012 2012 2012 2012 2012 2012 2012 2012 2012 
2012 2012 2012 2012 2012 2012 2012 2012 2012 
2012 2012 2012 2012 2012 2012 2012 2012 2012 
2012 2012 2012 2012 2012 2012 2012 2012 2012 
2012 2012 2012 2012 2012 2012 2012 2012 2012 
2012 2012 2012 2012 2012 2012 2012 2012 2012 
2012 2012 2012 2012 2012 2012 2012 2012 2012 
2012 2012 2012 2012 2012 2012 2012 2012 2012 
2012 2012 2012 2012 2012 2012 2012 2012 2012 
2012 2012 2012 2012 2012 2012 2012 2012 2012 
2012 2012 2012 2012 2012 2012 2012 2012 2012 
2012 2012 2012 2012 2012 2012 2012 2012 2012 
2012 2012 2012 2012 2012 2012 2012 2012 2012 
2012 2012 2012 2012 2012 2012 2012 2012 2012 
2012 2012 2012 2012 2012 2012 2012 2012 2012 
2012 2012 2012 2012 2012 2012 2012 2012 2012 
2012 2012 2012 2012 2012 2012 2012 2012 2012 
2012 2012 2012 2012 2012 2012 2012 2012 2012 
2012 2012 2012 2012 2012 2012 2012 2012 2012 
2012 2012 2012 2012 2012 2012 2012 2012 2012 
2012 2012 2012 2012 2012 2012 2012 2012 2012 
2012 2012 2012 2012 2012 2012 2012 2012 2012 
2012 2012 2012 2012 2012 2012 2012 2012 2012 
2012 2012 2012 2012 2012 2012 2012 2012 2012 
2012 2012 2012 2012 2012 2012 2012 2012 2012 
2012 2012 2012 2012 2012 2012 2012 2012 2012 
2012 2012 2012 2012 2012 2012 2012 2012 2012 
2012 2012 2012 2012 2012 2012 2012 2012 2012 
2012 2012 2012 2012 2012 2012 2012 2012 2012 
2012 2012 2012 2012 2012 2012 2012 2012 2012 
2012 2012 2012 2012 2012 2012 2012 2012 2012 
2012 2012 2012 2012 2012 2012 2012 2012 2012 
2012 2012 2012 2012 2012 2012 2012 2012 2012 
2012 2012 2012 2012 2012 2012 2012 2012 2012 
2012 2012 2012 2012 2012 2012 2012 2012 2012 
2012 2012 2012 2012 2012 2012 2012 2012 2012 
2012 2012 2012 2012 2012 2012 2012 2012 2012 
2012 2012 2012 2012 2012 2012 2012 2012 2012 
2012 2012 2012 2012 2012 2012 2012 2012 2012 
2012 2012 2012 2012 2012 2012 2012 2012 2012 
2012 2012 2012 2012 2012 2012 2012 2012 2012 
2012 2012 2012 2012 2012 2012 2012 2012 2012 
2012 2012 2012 2012 2012 2012 2012 2012 2012 
2012 2012 2012 2012 2012 2012 2012 2012 2012 
2012 2012 2012 2012 2012 2012 2012 2012 2012 
2012 2012 2012 2012 2012 2012 2012 2012 2012 
2012 2012 2012 2012 2012 2012 2012 2012 2012 
2012 2012 2012 2012 2012 2012 2012 2012 2012 
2012 2012 2012 2012 2012 2012 2012 2012 2012 
2012 2012 2012 2012 2012 2012 2012 2012 2012 
2012 2012 2012 2012 2012 2012 2012 2012 2012 
2012 2012 2012 2012 2012 2012 2012 2012 2012 
2012 2012 2012 2012 2012 2012 2012 2012 2012 
2012 2012 2012 2012 2012 2012 2012 2012 2012 
2012 2012 2012 2012 2012 2012 2012 2012 2012 
2012 2012 2012 2012 2012 2012 2012 2012 2012 
2012 2012 2012 2012 2012 2012 2012 2012 2012 
2012 2012 2012 2012 2012 2012 2012 2012 2012 
2012 2012 2012 2012 2012 2012 2012 2012 2012 
2012 2012 2012 2012 2012 2012 2012 2012 2012 
2012 2012 2012 2012 2012 2012 2012 2012 2012 
2012 2012 2012 2012 2012 2012 2012 2012 2012 
2012 2012 2012 2012 2012 2012 2012 2012 2012 
2012 2012 2012 2012 2012 2012 2012 2012 2012 
2012 2012 2012 2012 2012 2012 2012 2012 2012 
2012 2012 2012 2012 2012 2012 2012 2012 2012 
2012 2012 2012 2012 2012 2012 2012 2012 2012 
2012 2012 2012 2012 2012 2012 2012 2012 2012 
2012 2012 2012 2012 2012 2012 2012 2012 2012 
2012 2012 2012 2012 2012 2012 2012 2012 2012 
2012 2012 2012 2012 2012 2012 2012 2012 2012 
2012 2012 2012 2012 2012 2012 2012 2012 2012 
2012 2012 2012 2012 2012 2012 2012 2012 2012 
2012 2012 2012 2012 2012 2012 2012 2012 2012 
2012 2012 2012 2012 2012 2012 2012 2012 2012 
2012 2012 2012 2012 2012 2012 2012 2012 2012 
2012 2012 2012 2012 2012 2012 2012 2012 2012 
2012 2012 2012 2012 2012 2012 2012 2012 2012 
2012 2012 2012 2012 2012 2012 2012 2012 2012 
2012 2012 2012 2012 2012 2012 2012 2012 2012 
2012 2012 2012 2012 2012 2012 2012 2012 2012 
2012 2012 2012 2012 2012 2012 2012 2012 2012 
2012 2012 2012 2012 2012 2012 2012 2012 2012 
2012 2012 2012 2012 2012 2012 2012 2012 2012 
2012 2012 2012 2012 2012 2012 2012 2012 2012 
2012 2012 2012 2012 2012 2012 2012 2012 2012 
2012 2012 2012 2012 2012 2012 2012 2012 2012 
2012 2012 2012 2012 2012 2012 2012 2012 2012 
2012 2012 2012 2012 2012 2012 2012 2012 2012 
2012 2012 2012 2012 2012 2012 2012 2012 2012 
2012 2012 2012 2012 2012 2012 2012 2012 2012 
2012 2012 2012 2012 2012 2012 2012 2012 2012 
2012 2012 2012 2012 2012 2012 2012 2012 2012 
2012 2012 2012 2012 2012 2012 2012 2012 2012 
2012 2012 2012 2012 2012 2012 2012 2012 2012 
2012 2012 2012 2012 2012 2012 2012 2012 2012 
2012 2012 2012 2012 2012 2012 2012 2012 2012 
2012 2012 2012 2012 2012 2012 2012 2012 2012 
2012 2012 2012 2012 2012 2012 2012 2012 2012 
2012 2012 2012 2012 2012 2012 2012 2012 2012 
2012 2012 2012 2012 2012 2012 2012 2012 2012 
2012 2012 2012 2012 2012 2012 2012 2012 2012 
2012 2012 2012 2012 2012 2012 2012 2012 2012 
2012 2012 2012 2012 2012 2012 2012 2012 2012 
2012 2012 2012 2012 2012 2012 2012 2012 2012 
2012 2012 2012 2012 2012 2012 2012 2012 2012 
2012 2012 2012 2012 2012 2012 2012 2012 2012 
2012 2012 2012 2012 2012 2012 2012 2012 2012 
2012 2012 2012 2012 2012 2012 2012 2012 2012 
2012 2012 2012 2012 2012 2012 2012 2012 2012 
2012 2012 2012 2012 2012 2012 2012 2012 2012 
2012 2012 2012 2012 2012 2012 2012 2012 2012 
2012 2012 2012 2012 2012 2012 2012 2012 2012 
2012 2012 2012 2012 2012 2012 2012 2012 2012 
2012 2012 2012 2012 2012 2012 2012 2012 2012 
2012 2012 2012 2012 2012 2012 2012 2012 2012 
2012 2012 2012 2012 2012 2012 2012 2012 2012 
2012 2012 2012 2012 2012 2012 2012 2012 2012 
2012 2012 2012 2012 2012 2012 2012 2012 2012 
2012 2012 2012 2012 2012 2012 2012 2012 2012 
2012 2012 2012 2012 2012 2012 2012 2012 2012 
2012 2012 2012 2012 2012 2012 2012 2012 2012 
2012 2012 2012 2012 2012 2012 2012 2012 2012 
2012 2012 2012 2012 2012 2012 2012 2012 2012 
2012 2012 2012 2012 2012 2012 2012 2012 2012 
2012 2012 2012 2012 2012 2012 2012 2012 2012 
2012 2012 2012 2012 2012 2012 2012 2012 2012 
2012 2012 2012 2012 2012 2012 2012 2012 2012 
2012 2012 2012 2012 2012 2012 2012 2012 2012 
2012 2012 2012 2012 2012 2012 2012 2012 2012 
2012 2012 2012 2012 2012 2012 2012 2012 2012 
2012 2012 2012 2012 2012 2012 2012 2012 2012 
2012 2012 2012 2012 2012 2012 2012 2012 2012 
2012 2012 2012 2012 2012 2012 2012 2012 2012 
2012 2012 2012 2012 2012 2012 2012 2012 2012 
2012 2012 2012 2012 2012 2012 2012 2012 2012 
2012 2012 2012 2012 2012 2012 2012 2012 2012 
2012 2012 2012 2012 2012 2012 2012 2012 2012 
2012 2012 2012 2012 2012 2012 2012 2012 2012 
2012 2012 2012 2012 2012 2012 2012 2012 2012 
2012 2012 2012 2012 2012 2012 2012 2012 2012 
2012 2012 2012 2012 2012 2012 2012 2012 2012 
2012 2012 2012 2012 2012 2012 2012 2012 2012 
2012 2012 2012 2012 2012 2012 2012 2012 2012 
2012 2012 2012 2012 2012 2012 2012 2012 2012 
2012 2012 2012 2012 2012 2012 2012 2012 2012 
2012 2012 2012 2012 2012 2012 2012 2012 2012 
2012 2012 2012 2012 2012 2012 2012 2012 2012 
2012 2012 2012 2012 2012 2012 2012 2012 2012 
2012 2012 2012 2012 2012 2012 2012 2012 2012 
2012 2012 2012 2012 2012 2012 2012 2012 2012 
2012 2012 2012 2012 2012 2012 2012 2012 2012 
2012 2012 2012 2012 2012 2012 2012 2012 2012 
2012 2012 2012 2012 2012 2012 2012 2012 2012 
2012 2012 2012 2012 2012 2012 2012 2012 2012 
2012 2012 2012 2012 2012 2012 2012 2012 2012 
2012 2012 2012 2012 2012 2012 2012 2012 2012 
2012 2012 2012 2012 2012 2012 2012 2012 2012 
2012 2012 2012 2012 2012 2012 2012 2012 2012 
2012 2012 2012 2012 2012 2012 2012 2012 2012 
2012 2012 2012 2012 2012 2012 2012 2012 2012 
2012 2012 2012 2012 2012 2012 2012 2012 2012 
2012 2012 2012 2012 2012 2012 2012 2012 2012 
2012 2012 2012 2012 2012 2012 2012 2012 2012 
2012 2012 2012 2012 2012 2012 2012 2012 2012 
2012 2012 2012 2012 2012 2012 2012 2012 2012 
2012 2012 2012 2012 2012 2012 2012 2012 2012 
2012 2012 2012 2012 2012 2012 2012 2012 2012 