# vtk DataFile Version 4.0
vtk output
ASCII
DATASET POLYDATA
POINTS 3604 float
3.98957 49.6606 6.0049 4.22732 49.314 6.22114 4.26035 49.6044 5.99838 
3.526 49.1989 5.98224 5.70256 49.7964 4.93144 5.90825 49.3833 5.19715 
6.14546 49.5787 4.99941 5.01343 49.8332 4.7386 5.2601 49.4734 5.27997 
4.02443 49.381 5.64715 4.61658 49.372 4.87544 5.89296 49.6443 4.5654 
5.47663 49.157 4.09027 5.26078 49.792 4.20777 4.71378 49.5662 4.15722 
4.92342 49.2979 3.72361 3.04185 48.7978 6.68587 2.89671 48.1695 7.24944 
3.34763 48.429 6.98664 2.42101 48.394 7.03092 5.77951 48.6432 5.93063 
6.10121 48.4385 6.35413 6.35486 48.4769 6.00137 4.77279 49.1775 5.72908 
5.02136 48.5272 6.48915 3.84725 48.6062 6.59707 2.94276 48.9557 6.10286 
2.48272 48.5687 6.33054 7.01391 48.6498 4.95589 7.20811 48.3777 5.35087 
7.25117 48.3112 4.68819 6.19737 48.3994 5.6075 5.99305 49.2778 4.81945 
6.63039 48.2464 4.94099 5.67563 48.5962 4.98403 4.17057 48.9538 4.97127 
3.55697 48.7759 5.1848 2.8942 48.6375 5.62096 6.92672 48.3858 4.55526 
5.34057 48.2436 3.94092 4.43051 48.6247 3.9247 3.82163 48.4217 4.50753 
5.03443 48.5983 3.61597 2.99976 48.6283 -1.97689 3.12591 48.5051 -1.76377 
3.27398 48.5702 -1.98872 2.59542 48.2553 -2.06932 3.97313 48.6412 -3.04567 
4.16461 48.5217 -2.77653 4.34198 48.3685 -3.23762 3.02833 48.3532 -2.37218 
3.72903 48.496 -2.8741 3.71758 48.2709 -3.27616 5.01207 47.7355 7.69452 
5.01447 47.2957 8.22111 5.45159 47.5439 7.89687 4.67486 47.2333 8.01245 
6.93012 47.8529 6.91351 6.77129 47.2407 7.26027 7.45014 47.599 6.88012 
5.86867 48.0372 7.06441 6.12577 47.3905 7.57329 4.93056 47.9346 7.01034 
4.39988 47.3309 7.321 2.99827 47.2048 7.37047 3.54338 47.8404 7.0064 
1.90971 47.9746 6.73725 2.19657 47.7008 7.34206 1.63931 47.2803 7.06265 
7.71197 47.8621 6.08435 7.88816 47.2132 6.48743 8.27958 47.4335 6.0366 
6.70029 48.2562 5.97558 4.26464 47.8161 6.77382 2.12993 48.0225 5.72019 
1.39508 47.3295 6.30342 8.27859 47.3734 5.51866 7.67413 47.5495 4.90832 
6.19519 48.1361 5.16344 3.03371 48.1612 4.80171 2.26344 47.7707 4.77778 
1.54955 47.4939 5.32293 7.06734 47.9454 4.12029 7.3247 47.3615 3.90301 
6.57598 47.7567 4.15377 6.01784 47.726 4.46965 5.55769 47.6535 4.08605 
3.64375 48.096 3.86655 2.75188 47.8584 3.88554 2.22307 47.5598 4.14624 
1.81588 47.4256 4.58902 6.86898 47.4072 3.68702 5.98755 47.4922 3.22926 
6.37477 47.2972 3.04488 6.01602 47.5875 3.01727 4.97588 47.6699 3.4579 
5.65593 47.2595 2.91435 3.97671 47.8334 3.06412 4.39918 47.3399 2.82486 
3.17863 47.9458 3.11521 2.15697 47.569 3.56297 2.36862 47.7413 2.87122 
1.7708 47.406 3.11815 6.16155 47.2465 2.75529 3.81351 47.5107 2.39057 
3.50842 47.4882 1.6568 2.91043 47.8079 2.05441 2.21657 47.5921 2.11813 
1.82334 47.4126 2.53147 2.8007 47.8664 0.953459 3.43767 47.5087 0.71301 
2.12251 47.6066 1.53702 2.11653 47.8122 0.919177 1.64522 47.4562 1.02387 
2.93848 47.9079 -0.126705 3.60978 47.5662 -0.100895 2.07644 47.904 0.00623274 
1.47272 47.5303 0.217302 3.83021 47.8466 -0.979179 4.1227 47.4292 -0.620933 
4.55923 47.5468 -1.20058 2.91266 48.1751 -1.29975 2.09038 47.9261 -0.998936 
1.4323 47.5492 -0.793329 6.83109 47.8991 -2.21851 6.86825 47.1603 -1.71264 
7.5359 47.3894 -2.2112 5.72872 47.9265 -2.12662 6.14607 47.5111 -1.68481 
4.75619 47.8986 -1.8067 5.31774 47.3398 -1.50236 3.74759 48.296 -2.12286 
2.12045 47.9749 -1.78157 1.431 47.3395 -1.95936 7.7403 47.9209 -2.92943 
8.01249 47.3954 -2.73184 8.34532 47.4536 -3.38345 7.01391 48.1356 -2.97874 
6.06045 48.003 -3.15718 4.91328 48.2139 -2.73686 3.24047 48.1231 -2.95484 
2.46728 47.5279 -3.06222 1.93706 47.5193 -2.54214 8.06917 47.8418 -3.84044 
8.3573 47.322 -4.11802 7.07938 47.9053 -3.81758 6.2903 47.36 -3.73876 
6.69711 47.5371 -4.08802 5.07988 47.9001 -4.04643 5.60344 47.3392 -4.00102 
4.09858 47.6035 -3.69243 4.47547 47.4226 -4.16355 3.19927 47.4342 -3.56586 
7.83384 47.5613 -4.38429 7.25482 47.2857 -4.36819 5.85475 47.3316 -4.6448 
6.25309 47.2195 -5.35492 5.74845 47.805 -4.96363 5.1993 47.8365 -5.09224 
4.75909 47.3475 -4.7382 5.66691 47.422 -5.53682 5.08158 47.5437 -5.31044 
5.10126 46.4819 8.31232 5.51837 46.8696 8.09017 4.45878 46.3791 7.87603 
7.19885 47.0971 6.95394 6.60449 46.4 6.92027 6.22573 46.5044 7.61196 
3.71439 46.4986 7.42443 3.82496 47.2423 7.06113 2.77754 46.3183 7.48774 
2.07383 46.7498 7.39904 1.40517 46.3796 6.93362 7.82514 46.5215 6.28595 
8.47412 46.8358 5.8976 7.26526 46.6429 6.61562 0.987385 46.5952 6.3526 
0.944735 46.9524 5.71103 0.672194 46.2776 6.02018 8.82134 46.8048 5.19686 
8.89975 46.1639 5.44721 9.26412 46.394 5.00849 8.28236 47.0439 4.91896 
1.10336 47.0166 4.71801 0.434076 46.3354 5.27852 8.9573 46.3836 4.54523 
8.01414 46.6774 4.46386 7.63349 46.4098 3.85118 5.9912 47.289 3.54752 
1.6404 47.2334 3.85954 0.975822 46.8506 3.78036 0.440869 46.4201 4.07505 
6.92082 47.0138 3.22936 7.33533 46.5226 3.21308 4.98299 47.119 2.89788 
1.21455 46.986 2.80097 0.650953 46.5153 3.13306 6.84615 46.4743 2.55658 
5.84318 46.7181 2.37279 4.92943 46.8144 2.13134 5.31568 46.3599 1.83926 
4.22804 47.1283 2.19861 1.61644 47.2474 1.81367 0.976685 46.8314 1.78643 
0.626325 46.3644 2.23199 4.73581 46.4792 1.42261 4.63093 46.5197 0.83115 
4.15981 46.9605 1.13959 1.06158 47.0073 0.837037 0.464372 46.3202 1.24246 
6.81634 46.6621 0.0188711 7.06198 46.3047 0.266235 7.31715 46.4362 -0.184199 
5.84392 46.7286 -0.151565 6.13012 46.2952 0.15393 4.71192 46.8485 0.167948 
5.22067 46.3929 0.37467 4.05543 47.1954 0.0557465 0.951449 47.0365 -0.321271 
0.454542 46.4194 0.0783028 6.74417 46.4266 -0.350807 5.88554 46.2935 -0.445209 
5.52319 46.4312 -0.995872 4.93859 47.0225 -0.732627 0.950381 47.0068 -1.34338 
0.620596 46.524 -0.902458 7.07085 46.4642 -1.59985 7.50536 46.6098 -2.10738 
6.16205 46.6647 -1.39231 0.940059 46.8874 -2.01378 0.632628 46.2877 -1.89199 
8.00268 46.9347 -3.26808 7.58228 46.7995 -2.85466 1.91099 47.0032 -3.09591 
1.43616 46.4688 -3.0948 0.955371 46.4942 -2.58313 7.95606 46.3859 -3.56265 
8.36126 46.4482 -3.82449 7.13651 46.9443 -3.77197 7.49712 46.3887 -4.18841 
6.79757 46.499 -3.57864 5.70836 46.354 -3.75823 5.27922 46.6153 -4.17338 
4.38272 46.7194 -3.97142 3.71699 46.7471 -3.67925 3.10654 46.7357 -3.95212 
3.38008 46.1087 -3.84752 2.53041 46.7544 -3.89219 1.94988 46.5047 -3.60096 
7.97117 46.7956 -4.4473 5.88758 46.5776 -4.8835 6.3026 46.6825 -5.062 
5.33438 46.9745 -4.957 4.87744 46.6303 -4.42387 5.69508 46.3174 -5.35232 
2.67881 46.2152 -4.30341 6.11316 46.8517 -5.99648 6.30255 46.4753 -5.76651 
5.7241 46.6138 -5.87526 6.05016 46.4059 -6.20545 6.66192 45.7823 7.9164 
7.10636 45.1688 8.34143 7.35985 45.4864 7.99933 5.84846 46.1954 8.14308 
5.9644 45.6245 8.38225 5.09799 45.5755 8.26824 4.59747 45.587 7.93942 
7.26752 45.3282 7.56915 6.55373 45.7399 7.20342 4.22 45.3912 7.70508 
3.04418 45.4886 7.61456 2.07255 45.743 7.38607 1.42813 45.1884 7.03669 
8.12404 46.1499 5.92621 6.90935 46.003 6.05445 6.07663 45.4836 6.45458 
5.59746 45.9392 5.88157 5.06048 45.6633 6.175 4.81619 45.868 5.76697 
4.61913 45.3054 5.7496 0.926008 45.7455 6.52694 0.418101 45.3741 5.94669 
8.84643 45.4712 5.27369 9.47876 45.8328 4.89989 7.92524 45.5524 5.50468 
6.91419 45.5548 5.32677 6.11909 45.8224 5.26049 6.55126 45.3284 4.8927 
5.2081 45.8691 5.15766 4.56707 45.4203 5.0591 -0.0326859 45.5834 5.37317 
-0.0966767 45.9304 4.68804 -0.371261 45.2696 4.97779 9.84479 45.791 4.20199 
9.9393 45.1526 4.47472 10.3674 45.1994 3.74282 9.1854 45.8765 3.91916 
8.29009 46.0011 3.96278 5.87531 45.4024 4.67491 5.05787 45.2873 4.47737 
-0.0181562 45.8569 3.86215 -0.385111 45.3314 4.25785 9.73137 45.4513 3.5335 
8.73097 45.4224 3.46125 7.95457 45.562 3.45502 7.63064 45.738 2.92382 
0.34326 45.8022 2.99618 -0.0527529 45.1638 3.49583 7.64854 45.8 1.97873 
8.12119 45.3156 2.38355 8.42222 45.4476 1.65737 6.82808 45.9729 1.77624 
6.02628 46.1263 1.85952 0.359819 45.4029 1.95552 8.1252 45.8437 0.98601 
8.68741 45.5859 0.885221 7.1929 45.9382 0.954806 6.10622 45.7247 0.938104 
5.2259 46.0844 1.09618 0.0301224 45.6092 1.28242 -0.0462595 45.9382 0.647737 
-0.308189 45.3011 0.925683 8.677 45.8474 -0.00147034 9.20849 45.3312 0.438946 
9.28234 45.5328 -0.328949 7.7868 46.1109 0.0356655 6.3517 45.7778 -0.0437047 
5.97484 45.9517 -0.068843 5.93679 45.3654 0.252512 5.67213 45.7467 -0.015608 
0.00376261 45.875 -0.119935 -0.398403 45.2633 0.132645 9.02982 45.9075 -1.18787 
9.70005 45.496 -0.981397 8.18346 46.0081 -0.872663 7.10556 46.1242 -0.903005 
6.01181 45.8403 -0.793687 5.91835 45.3673 -0.344935 0.276351 45.853 -0.995001 
-0.146611 45.393 -0.637141 9.83674 45.7612 -1.78396 10.1726 45.3876 -1.44448 
10.3319 45.2029 -1.95689 9.05994 45.8578 -2.18274 7.99583 46.0898 -1.77298 
0.329121 45.3961 -2.10023 9.8508 45.5117 -2.30004 9.14524 45.4448 -2.70441 
8.54276 45.6959 -3.28936 7.93294 46.1014 -3.01354 4.06789 45.9087 -3.2683 
4.4082 45.4427 -3.0268 4.00997 45.3792 -2.81016 3.7336 45.4784 -3.27623 
0.968929 45.9823 -3.09309 0.675769 45.6737 -2.81208 8.39094 45.3353 -3.75463 
7.05586 46.1248 -3.98624 6.29066 45.9583 -4.08207 5.53355 45.5927 -3.90268 
4.95008 45.4839 -3.46619 4.86791 46.0288 -3.6806 3.35886 45.4932 -4.08068 
2.11025 46.0676 -4.17581 1.57347 45.5161 -4.02379 1.02327 45.3001 -3.46226 
7.87574 45.8216 -4.44705 6.93787 45.8272 -4.80243 7.46615 45.3304 -5.07958 
6.09905 46.2086 -5.30384 5.89562 45.2409 -4.54628 6.53549 45.5084 -5.37531 
2.81146 45.6207 -4.56128 2.09155 45.4893 -4.6026 6.97384 45.6757 -5.82357 
7.21263 45.3781 -5.9374 6.71887 45.4182 -5.95492 5.95385 46.1816 -5.8673 
6.97389 45.5295 -6.25895 7.83039 45.0127 7.99344 8.04053 44.3055 8.37989 
8.35244 44.4418 7.8313 7.09334 44.4615 8.53756 5.98087 44.3723 8.57185 
5.00232 44.9536 7.96891 5.24737 44.2751 8.06067 3.64252 44.8876 7.97742 
4.16321 44.2081 8.26078 4.41966 44.6209 7.88806 2.85258 44.8312 7.9335 
3.24898 44.3918 8.24519 2.6846 44.3106 7.97052 7.80516 44.6861 7.41844 
6.99565 44.9867 6.97996 7.52535 44.4774 6.96794 4.85244 44.6174 7.76465 
2.18471 44.5962 7.52601 1.4151 44.1473 7.02321 7.01129 44.4492 6.46663 
6.02171 44.8114 6.08104 6.54417 44.2763 5.92218 5.23195 45.0942 6.03069 
[...]
CELL_DATA 7272
SCALARS scalars float
LOOKUP_TABLE default
2026 2026 2026 2026 2026 2026 2026 2026 2026 
2026 2026 2026 2026 2026 2026 2026 2026 2026 
2026 2026 2026 2026 2026 2026 2026 2026 2026 
2026 2026 2026 2026 2026 2026 2026 2026 2026 
2026 2026 2026 2026 2026 2026 2026 2026 2026 
2026 2026 2026 2026 2026 2026 2026 2026 2026 
2026 2026 2026 2026 2026 2026 2026 2026 2026 
2026 2026 2026 2026 2026 2026 2026 2026 2026 
2026 2026 2026 2026 2026 2026 2026 2026 2026 
2026 2026 2026 2026 2026 2026 2026 2026 2026 
2026 2026 2026 2026 2026 2026 2026 2026 2026 
2026 2026 2026 2026 2026 2026 2026 2026 2026 
2026 2026 2026 2026 2026 2026 2026 2026 2026 
2026 2026 2026 2026 2026 2026 2026 2026 2026 
2026 2026 2026 2026 2026 2026 2026 2026 2026 
2026 2026 2026 2026 2026 2026 2026 2026 2026 
2026 2026 2026 2026 2026 2026 2026 2026 2026 
2026 2026 2026 2026 2026 2026 2026 2026 2026 
2026 2026 2026 2026 2026 2026 2026 2026 2026 
2026 2026 2026 2026 2026 2026 2026 2026 2026 
2026 2026 2026 2026 2026 2026 2026 2026 2026 
2026 2026 2026 2026 2026 2026 2026 2026 2026 
2026 2026 2026 2026 2026 2026 2026 2026 2026 
2026 2026 2026 2026 2026 2026 2026 2026 2026 
2026 2026 2026 2026 2026 2026 2026 2026 2026 
2026 2026 2026 2026 2026 2026 2026 2026 2026 
2026 2026 2026 2026 2026 2026 2026 2026 2026 
2026 2026 2026 2026 2026 2026 2026 2026 2026 
2026 2026 2026 2026 2026 2026 2026 2026 2026 
2026 2026 2026 2026 2026 2026 2026 2026 2026 
2026 2026 2026 2026 2026 2026 2026 2026 2026 
2026 2026 2026 2026 2026 2026 2026 2026 2026 
2026 2026 2026 2026 2026 2026 2026 2026 2026 
2026 2026 2026 2026 2026 2026 2026 2026 2026 
2026 2026 2026 2026 2026 2026 2026 2026 2026 
2026 2026 2026 2026 2026 2026 2026 2026 2026 
2026 2026 2026 2026 2026 2026 2026 2026 2026 
2026 2026 2026 2026 2026 2026 2026 2026 2026 
2026 2026 2026 2026 2026 2026 2026 2026 2026 
2026 2026 2026 2026 2026 2026 2026 2026 2026 
2026 2026 2026 2026 2026 2026 2026 2026 2026 
2026 2026 2026 2026 2026 2026 2026 2026 2026 
2026 2026 2026 2026 2026 2026 2026 2026 2026 
2026 2026 2026 2026 2026 2026 2026 2026 2026 
2026 2026 2026 2026 2026 2026 2026 2026 2026 
2026 2026 2026 2026 2026 2026 2026 2026 2026 
2026 2026 2026 2026 2026 2026 2026 2026 2026 
2026 2026 2026 2026 2026 2026 2026 2026 2026 
2026 2026 2026 2026 2026 2026 2026 2026 2026 
2026 2026 2026 2026 2026 2026 2026 2026 2026 
2026 2026 2026 2026 2026 2026 2026 2026 2026 
2026 2026 2026 2026 2026 2026 2026 2026 2026 
2026 2026 2026 2026 2026 2026 2026 2026 2026 
2026 2026 2026 2026 2026 2026 2026 2026 2026 
2026 2026 2026 2026 2026 2026 2026 2026 2026 
2026 2026 2026 2026 2026 2026 2026 2026 2026 
2026 2026 2026 2026 2026 2026 2026 2026 2026 
2026 2026 2026 2026 2026 2026 2026 2026 2026 
2026 2026 2026 2026 2026 2026 2026 2026 2026 
2026 2026 2026 2026 2026 2026 2026 2026 2026 
2026 2026 2026 2026 2026 2026 2026 2026 2026 
2026 2026 2026 2026 2026 2026 2026 2026 2026 
2026 2026 2026 2026 2026 2026 2026 2026 2026 
2026 2026 2026 2026 2026 2026 2026 2026 2026 
2026 2026 2026 2026 2026 2026 2026 2026 2026 
2026 2026 2026 2026 2026 2026 2026 2026 2026 
2026 2026 2026 2026 2026 2026 2026 2026 2026 
2026 2026 2026 2026 2026 2026 2026 2026 2026 
2026 2026 2026 2026 2026 2026 2026 2026 2026 
2026 2026 2026 2026 2026 2026 2026 2026 2026 
2026 2026 2026 2026 2026 2026 2026 2026 2026 
2026 2026 2026 2026 2026 2026 2026 2026 2026 
2026 2026 2026 2026 2026 2026 2026 2026 2026 
2026 2026 2026 2026 2026 2026 2026 2026 2026 
2026 2026 2026 2026 2026 2026 2026 2026 2026 
2026 2026 2026 2026 2026 2026 2026 2026 2026 
2026 2026 2026 2026 2026 2026 2026 2026 2026 
2026 2026 2026 2026 2026 2026 2026 2026 2026 
2026 2026 2026 2026 2026 2026 2026 2026 2026 
2026 2026 2026 2026 2026 2026 2026 2026 2026 
2026 2026 2026 2026 2026 2026 2026 2026 2026 
2026 2026 2026 2026 2026 2026 2026 2026 2026 
2026 2026 2026 2026 2026 2026 2026 2026 2026 
2026 2026 2026 2026 2026 2026 2026 2026 2026 
2026 2026 2026 2026 2026 2026 2026 2026 2026 
2026 2026 2026 2026 2026 2026 2026 2026 2026 
2026 2026 2026 2026 2026 2026 2026 2026 2026 
2026 2026 2026 2026 2026 2026 2026 2026 2026 
2026 2026 2026 2026 2026 2026 2026 2026 2026 
2026 2026 2026 2026 2026 2026 2026 2026 2026 
2026 2026 2026 2026 2026 2026 2026 2026 2026 
2026 2026 2026 2026 2026 2026 2026 2026 2026 
2026 2026 2026 2026 2026 2026 2026 2026 2026 
2026 2026 2026 2026 2026 2026 2026 2026 2026 
2026 2026 2026 2026 2026 2026 2026 2026 2026 
2026 2026 2026 2026 2026 2026 2026 2026 2026 
2026 2026 2026 2026 2026 2026 2026 2026 2026 
2026 2026 2026 2026 2026 2026 2026 2026 2026 
2026 2026 2026 2026 2026 2026 2026 2026 2026 
2026 2026 2026 2026 2026 2026 2026 2026 2026 
2026 2026 2026 2026 2026 2026 2026 2026 2026 
2026 2026 2026 2026 2026 2026 2026 2026 2026 
2026 2026 2026 2026 2026 2026 2026 2026 2026 
2026 2026 2026 2026 2026 2026 2026 2026 2026 
2026 2026 2026 2026 2026 2026 2026 2026 2026 
2026 2026 2026 2026 2026 2026 2026 2026 2026 
2026 2026 2026 2026 2026 2026 2026 2026 2026 
2026 2026 2026 2026 2026 2026 2026 2026 2026 
2026 2026 2026 2026 2026 2026 2026 2026 2026 
2026 2026 2026 2026 2026 2026 2026 2026 2026 
2026 2026 2026 2026 2026 2026 2026 2026 2026 
2026 2026 2026 2026 2026 2026 2026 2026 2026 
2026 2026 2026 2026 2026 2026 2026 2026 2026 
2026 2026 2026 2026 2026 2026 2026 2026 2026 
2026 2026 2026 2026 2026 2026 2026 2026 2026 
2026 2026 2026 2026 2026 2026 2026 2026 2026 
2026 2026 2026 2026 2026 2026 2026 2026 2026 
2026 2026 2026 2026 2026 2026 2026 2026 2026 
2026 2026 2026 2026 2026 2026 2026 2026 2026 
2026 2026 2026 2026 2026 2026 2026 2026 2026 
2026 2026 2026 2026 2026 2026 2026 2026 2026 
2026 2026 2026 2026 2026 2026 2026 2026 2026 
2026 2026 2026 2026 2026 2026 2026 2026 2026 
2026 2026 2026 2026 2026 2026 2026 2026 2026 
2026 2026 2026 2026 2026 2026 2026 2026 2026 
2026 2026 2026 2026 2026 2026 2026 2026 2026 
2026 2026 2026 2026 2026 2026 2026 2026 2026 
2026 2026 2026 2026 2026 2026 2026 2026 2026 
2026 2026 2026 2026 2026 2026 2026 2026 2026 
2026 2026 2026 2026 2026 2026 2026 2026 2026 
2026 2026 2026 2026 2026 2026 2026 2026 2026 
2026 2026 2026 2026 2026 2026 2026 2026 2026 
2026 2026 2026 2026 2026 2026 2026 2026 2026 
2026 2026 2026 2026 2026 2026 2026 2026 2026 
2026 2026 2026 2026 2026 2026 2026 2026 2026 
2026 2026 2026 2026 2026 2026 2026 2026 2026 
2026 2026 2026 2026 2026 2026 2026 2026 2026 
2026 2026 2026 2026 2026 2026 2026 2026 2026 
2026 2026 2026 2026 2026 2026 2026 2026 2026 
2026 2026 2026 2026 2026 2026 2026 2026 2026 
2026 2026 2026 2026 2026 2026 2026 2026 2026 
2026 2026 2026 2026 2026 2026 2026 2026 2026 
2026 2026 2026 2026 2026 2026 2026 2026 2026 
2026 2026 2026 2026 2026 2026 2026 2026 2026 
2026 2026 2026 2026 2026 2026 2026 2026 2026 
2026 2026 2026 2026 2026 2026 2026 2026 2026 
2026 2026 2026 2026 2026 2026 2026 2026 2026 
2026 2026 2026 2026 2026 2026 2026 2026 2026 
2026 2026 2026 2026 2026 2026 2026 2026 2026 
2026 2026 2026 2026 2026 2026 2026 2026 2026 
2026 2026 2026 2026 2026 2026 2026 2026 2026 
2026 2026 2026 2026 2026 2026 2026 2026 2026 
2026 2026 2026 2026 2026 2026 2026 2026 2026 
2026 2026 2026 2026 2026 2026 2026 2026 2026 
2026 2026 2026 2026 2026 2026 2026 2026 2026 
2026 2026 2026 2026 2026 2026 2026 2026 2026 
2026 2026 2026 2026 2026 2026 2026 2026 2026 
2026 2026 2026 2026 2026 2026 2026 2026 2026 
2026 2026 2026 2026 2026 2026 2026 2026 2026 
2026 2026 2026 2026 2026 2026 2026 2026 2026 
2026 2026 2026 2026 2026 2026 2026 2026 2026 
2026 2026 2026 2026 2026 2026 2026 2026 2026 
2026 2026 2026 2026 2026 2026 2026 2026 2026 
2026 2026 2026 2026 2026 2026 2026 2026 2026 
2026 2026 2026 2026 2026 2026 2026 2026 2026 
2026 2026 2026 2026 2026 2026 2026 2026 2026 
2026 2026 2026 2026 2026 2026 2026 2026 2026 
2026 2026 2026 2026 2026 2026 2026 2026 2026 
2026 2026 2026 2026 2026 2026 2026 2026 2026 
2026 2026 2026 2026 2026 2026 2026 2026 2026 
2026 2026 2026 2026 2026 2026 2026 2026 2026 
2026 2026 2026 2026 2026 2026 2026 2026 2026 
2026 2026 2026 2026 2026 2026 2026 2026 2026 
2026 2026 2026 2026 2026 2026 2026 2026 2026 
2026 2026 2026 2026 2026 2026 2026 2026 2026 
2026 2026 2026 2026 2026 2026 2026 2026 2026 
2026 2026 2026 2026 2026 2026 2026 2026 2026 
2026 2026 2026 2026 2026 2026 2026 2026 2026 
2026 2026 2026 2026 2026 2026 2026 2026 2026 
2026 2026 2026 2026 2026 2026 2026 2026 2026 
2026 2026 2026 2026 2026 2026 2026 2026 2026 
2026 2026 2026 2026 2026 2026 2026 2026 2026 
2026 2026 2026 2026 2026 2026 2026 2026 2026 
2026 2026 2026 2026 2026 2026 2026 2026 2026 
2026 2026 2026 2026 2026 2026 2026 2026 2026 
2026 2026 2026 2026 2026 2026 2026 2026 2026 
2026 2026 2026 2026 2026 2026 2026 2026 2026 
2026 2026 2026 2026 2026 2026 2026 2026 2026 
2026 2026 2026 2026 2026 2026 2026 2026 2026 
2026 2026 2026 2026 2026 2026 2026 2026 2026 
2026 2026 2026 2026 2026 2026 2026 2026 2026 
2026 2026 2026 2026 2026 2026 2026 2026 2026 
2026 2026 2026 2026 2026 2026 2026 2026 2026 
2026 2026 2026 2026 2026 2026 2026 2026 2026 
2026 2026 2026 2026 2026 2026 2026 2026 2026 
2026 2026 2026 2026 2026 2026 2026 2026 2026 
2026 2026 2026 2026 2026 2026 2026 2026 2026 
2026 2026 2026 2026 2026 2026 2026 2026 2026 
2026 2026 2026 2026 2026 2026 2026 2026 2026 
2026 2026 2026 2026 2026 2026 2026 2026 2026 
2026 2026 2026 2026 2026 2026 2026 2026 2026 
2026 2026 2026 2026 2026 2026 2026 2026 2026 
2026 2026 2026 2026 2026 2026 2026 2026 2026 
2026 2026 2026 2026 2026 2026 2026 2026 2026 
2026 2026 2026 2026 2026 2026 2026 2026 2026 
2026 2026 2026 2026 2026 2026 2026 2026 2026 
2026 2026 2026 2026 2026 2026 2026 2026 2026 
2026 2026 2026 2026 2026 2026 2026 2026 2026 
2026 2026 2026 2026 2026 2026 2026 2026 2026 
2026 2026 2026 2026 2026 2026 2026 2026 2026 
2026 2026 2026 2026 2026 2026 2026 2026 2026 
2026 2026 2026 2026 2026 2026 2026 2026 2026 
2026 2026 2026 2026 2026 2026 2026 2026 2026 
2026 2026 2026 2026 2026 2026 2026 2026 2026 
2026 2026 2026 2026 2026 2026 2026 2026 2026 
2026 2026 2026 2026 2026 2026 2026 2026 2026 
2026 2026 2026 2026 2026 2026 2026 2026 2026 
2026 2026 2026 2026 2026 2026 2026 2026 2026 
2026 2026 2026 2026 2026 2026 2026 2026 2026 
2026 2026 2026 2026 2026 2026 2026 2026 2026 
2026 2026 2026 2026 2026 2026 2026 2026 2026 
2026 2026 2026 2026 2026 2026 2026 2026 2026 
2026 2026 2026 2026 2026 2026 2026 2026 2026 
2026 2026 2026 2026 2026 2026 2026 2026 2026 
2026 2026 2026 2026 2026 2026 2026 2026 2026 
2026 2026 2026 2026 2026 2026 2026 2026 2026 
2026 2026 2026 2026 2026 2026 2026 2026 2026 
2026 2026 2026 2026 2026 2026 2026 2026 2026 
2026 2026 2026 2026 2026 2026 2026 2026 2026 
2026 2026 2026 2026 2026 2026 2026 2026 2026 
2026 2026 2026 2026 2026 2026 2026 2026 2026 
2026 2026 2026 2026 2026 2026 2026 2026 2026 
2026 2026 2026 2026 2026 2026 2026 2026 2026 
2026 2026 2026 2026 2026 2026 2026 2026 2026 
2026 2026 2026 2026 2026 2026 2026 2026 2026 
2026 2026 2026 2026 2026 2026 2026 2026 2026 
2026 2026 2026 2026 2026 2026 2026 2026 2026 
2026 2026 2026 2026 2026 2026 2026 2026 2026 
2026 2026 2026 2026 2026 2026 2026 2026 2026 
2026 2026 2026 2026 2026 2026 2026 2026 2026 
2026 2026 2026 2026 2026 2026 2026 2026 2026 
2026 2026 2026 2026 2026 2026 2026 2026 2026 
2026 2026 2026 2026 2026 2026 2026 2026 2026 
2026 2026 2026 2026 2026 2026 2026 2026 2026 
2026 2026 2026 2026 2026 2026 2026 2026 2026 
2026 2026 2026 2026 2026 2026 2026 2026 2026 
2026 2026 2026 2026 2026 2026 2026 2026 2026 
2026 2026 2026 2026 2026 2026 2026 2026 2026 
2026 2026 2026 2026 2026 2026 2026 2026 2026 
2026 2026 2026 2026 2026 2026 2026 2026 2026 
2026 2026 2026 2026 2026 2026 2026 2026 2026 
2026 2026 2026 2026 2026 2026 2026 2026 2026 
2026 2026 2026 2026 2026 2026 2026 2026 2026 
2026 2026 2026 2026 2026 2026 2026 2026 2026 
2026 2026 2026 2026 2026 2026 2026 2026 2026 
2026 2026 2026 2026 2026 2026 2026 2026 2026 
2026 2026 2026 2026 2026 2026 2026 2026 2026 
2026 2026 2026 2026 2026 2026 2026 2026 2026 
2026 2026 2026 2026 2026 2026 2026 2026 2026 
2026 2026 2026 2026 2026 2026 2026 2026 2026 
2026 2026 2026 2026 2026 2026 2026 2026 2026 
2026 2026 2026 2026 2026 2026 2026 2026 2026 
2026 2026 2026 2026 2026 2026 2026 2026 2026 
2026 2026 2026 2026 2026 2026 2026 2026 2026 
2026 2026 2026 2026 2026 2026 2026 2026 2026 
2026 2026 2026 2026 2026 2026 2026 2026 2026 
2026 2026 2026 2026 2026 2026 2026 2026 2026 
2026 2026 2026 2026 2026 2026 2026 2026 2026 
2026 2026 2026 2026 2026 2026 2026 2026 2026 
2026 2026 2026 2026 2026 2026 2026 2026 2026 
2026 2026 2026 2026 2026 2026 2026 2026 2026 
2026 2026 2026 2026 2026 2026 2026 2026 2026 
2026 2026 2026 2026 2026 2026 2026 2026 2026 
2026 2026 2026 2026 2026 2026 2026 2026 2026 
2026 2026 2026 2026 2026 2026 2026 2026 2026 
2026 2026 2026 2026 2026 2026 2026 2026 2026 
2026 2026 2026 2026 2026 2026 2026 2026 2026 
2026 2026 2026 2026 2026 2026 2026 2026 2026 
2026 2026 2026 2026 2026 2026 2026 2026 2026 
2026 2026 2026 2026 2026 2026 2026 2026 2026 
2026 2026 2026 2026 2026 2026 2026 2026 2026 
2026 2026 2026 2026 2026 2026 2026 2026 2026 
2026 2026 2026 2026 2026 2026 2026 2026 2026 
2026 2026 2026 2026 2026 2026 2026 2026 2026 
2026 2026 2026 2026 2026 2026 2026 2026 2026 
2026 2026 2026 2026 2026 2026 2026 2026 2026 
2026 2026 2026 2026 2026 2026 2026 2026 2026 
2026 2026 2026 2026 2026 2026 2026 2026 2026 
2026 2026 2026 2026 2026 2026 2026 2026 2026 
2026 2026 2026 2026 2026 2026 2026 2026 2026 
2026 2026 2026 2026 2026 2026 2026 2026 2026 
2026 2026 2026 2026 2026 2026 2026 2026 2026 
2026 2026 2026 2026 2026 2026 2026 2026 2026 
2026 2026 2026 2026 2026 2026 2026 2026 2026 
2026 2026 2026 2026 2026 2026 2026 2026 2026 
2026 2026 2026 2026 2026 2026 2026 2026 2026 
2026 2026 2026 2026 2026 2026 2026 2026 2026 
2026 2026 2026 2026 2026 2026 2026 2026 2026 
2026 2026 2026 2026 2026 2026 2026 2026 2026 
2026 2026 2026 2026 2026 2026 2026 2026 2026 
2026 2026 2026 2026 2026 2026 2026 2026 2026 
2026 2026 2026 2026 2026 2026 2026 2026 2026 
2026 2026 2026 2026 2026 2026 2026 2026 2026 
2026 2026 2026 2026 2026 2026 2026 2026 2026 
2026 2026 2026 2026 2026 2026 2026 2026 2026 
2026 2026 2026 2026 2026 2026 2026 2026 2026 
2026 2026 2026 2026 2026 2026 2026 2026 2026 
2026 2026 2026 2026 2026 2026 2026 2026 2026 
2026 2026 2026 2026 2026 2026 2026 2026 2026 
2026 2026 2026 2026 2026 2026 2026 2026 2026 
2026 2026 2026 2026 2026 2026 2026 2026 2026 
2026 2026 2026 2026 2026 2026 2026 2026 2026 
2026 2026 2026 2026 2026 2026 2026 2026 2026 
2026 2026 2026 2026 2026 2026 2026 2026 2026 
2026 2026 2026 2026 2026 2026 2026 2026 2026 
2026 2026 2026 2026 2026 2026 2026 2026 2026 
2026 2026 2026 2026 2026 2026 2026 2026 2026 
2026 2026 2026 2026 2026 2026 2026 2026 2026 
2026 2026 2026 2026 2026 2026 2026 2026 2026 
2026 2026 2026 2026 2026 2026 2026 2026 2026 
2026 2026 2026 2026 2026 2026 2026 2026 2026 
2026 2026 2026 2026 2026 2026 2026 2026 2026 
2026 2026 2026 2026 2026 2026 2026 2026 2026 
2026 2026 2026 2026 2026 2026 2026 2026 2026 
2026 2026 2026 2026 2026 2026 2026 2026 2026 
2026 2026 2026 2026 2026 2026 2026 2026 2026 
2026 2026 2026 2026 2026 2026 2026 2026 2026 
2026 2026 2026 2026 2026 2026 2026 2026 2026 
2026 2026 2026 2026 2026 2026 2026 2026 2026 
2026 2026 2026 2026 2026 2026 2026 2026 2026 
2026 2026 2026 2026 2026 2026 2026 2026 2026 
2026 2026 2026 2026 2026 2026 2026 2026 2026 
2026 2026 2026 2026 2026 2026 2026 2026 2026 
2026 2026 2026 2026 2026 2026 2026 2026 2026 
2026 2026 2026 2026 2026 2026 2026 2026 2026 
2026 2026 2026 2026 2026 2026 2026 2026 2026 
2026 2026 2026 2026 2026 2026 2026 2026 2026 
2026 2026 2026 2026 2026 2026 2026 2026 2026 
2026 2026 2026 2026 2026 2026 2026 2026 2026 
2026 2026 2026 2026 2026 2026 2026 2026 2026 
2026 2026 2026 2026 2026 2026 2026 2026 2026 
2026 2026 2026 2026 2026 2026 2026 2026 2026 
2026 2026 2026 2026 2026 2026 2026 2026 2026 
2026 2026 2026 2026 2026 2026 2026 2026 2026 
2026 2026 2026 2026 2026 2026 2026 2026 2026 
2026 2026 2026 2026 2026 2026 2026 2026 2026 
2026 2026 2026 2026 2026 2026 2026 2026 2026 
2026 2026 2026 2026 2026 2026 2026 2026 2026 
2026 2026 2026 2026 2026 2026 2026 2026 2026 
2026 2026 2026 2026 2026 2026 2026 2026 2026 
2026 2026 2026 2026 2026 2026 2026 2026 2026 
2026 2026 2026 2026 2026 2026 2026 2026 2026 
2026 2026 2026 2026 2026 2026 2026 2026 2026 
2026 2026 2026 2026 2026 2026 2026 2026 2026 
2026 2026 2026 2026 2026 2026 2026 2026 2026 
2026 2026 2026 2026 2026 2026 2026 2026 2026 
2026 2026 2026 2026 2026 2026 2026 2026 2026 
2026 2026 2026 2026 2026 2026 2026 2026 2026 
2026 2026 2026 2026 2026 2026 2026 2026 2026 
2026 2026 2026 2026 2026 2026 2026 2026 2026 
2026 2026 2026 2026 2026 2026 2026 2026 2026 
2026 2026 2026 2026 2026 2026 2026 2026 2026 
2026 2026 2026 2026 2026 2026 2026 2026 2026 
2026 2026 2026 2026 2026 2026 2026 2026 2026 
2026 2026 2026 2026 2026 2026 2026 2026 2026 
2026 2026 2026 2026 2026 2026 2026 2026 2026 
2026 2026 2026 2026 2026 2026 2026 2026 2026 
2026 2026 2026 2026 2026 2026 2026 2026 2026 
2026 2026 2026 2026 2026 2026 2026 2026 2026 
2026 2026 2026 2026 2026 2026 2026 2026 2026 
2026 2026 2026 2026 2026 2026 2026 2026 2026 
2026 2026 2026 2026 2026 2026 2026 2026 2026 
2026 2026 2026 2026 2026 2026 2026 2026 2026 
2026 2026 2026 2026 2026 2026 2026 2026 2026 
2026 2026 2026 2026 2026 2026 2026 2026 2026 
2026 2026 2026 2026 2026 2026 2026 2026 2026 
2026 2026 2026 2026 2026 2026 2026 2026 2026 
2026 2026 2026 2026 2026 2026 2026 2026 2026 
2026 2026 2026 2026 2026 2026 2026 2026 2026 
2026 2026 2026 2026 2026 2026 2026 2026 2026 
2026 2026 2026 2026 2026 2026 2026 2026 2026 
2026 2026 2026 2026 2026 2026 2026 2026 2026 
2026 2026 2026 2026 2026 2026 2026 2026 2026 
2026 2026 2026 2026 2026 2026 2026 2026 2026 
2026 2026 2026 2026 2026 2026 2026 2026 2026 
2026 2026 2026 2026 2026 2026 2026 2026 2026 
2026 2026 2026 2026 2026 2026 2026 2026 2026 
2026 2026 2026 2026 2026 2026 2026 2026 2026 
2026 2026 2026 2026 2026 2026 2026 2026 2026 
2026 2026 2026 2026 2026 2026 2026 2026 2026 
2026 2026 2026 2026 2026 2026 2026 2026 2026 
2026 2026 2026 2026 2026 2026 2026 2026 2026 
2026 2026 2026 2026 2026 2026 2026 2026 2026 
2026 2026 2026 2026 2026 2026 2026 2026 2026 
2026 2026 2026 2026 2026 2026 2026 2026 2026 
2026 2026 2026 2026 2026 2026 2026 2026 2026 
2026 2026 2026 2026 2026 2026 2026 2026 2026 
2026 2026 2026 2026 2026 2026 2026 2026 2026 
2026 2026 2026 2026 2026 2026 2026 2026 2026 
2026 2026 2026 2026 2026 2026 2026 2026 2026 
2026 2026 2026 2026 2026 2026 2026 2026 2026 
2026 2026 2026 2026 2026 2026 2026 2026 2026 
2026 2026 2026 2026 2026 2026 2026 2026 2026 
2026 2026 2026 2026 2026 2026 2026 2026 2026 
2026 2026 2026 2026 2026 2026 2026 2026 2026 
2026 2026 2026 2026 2026 2026 2026 2026 2026 
2026 2026 2026 2026 2026 2026 2026 2026 2026 
2026 2026 2026 2026 2026 2026 2026 2026 2026 
2026 2026 2026 2026 2026 2026 2026 2026 2026 
2026 2026 2026 2026 2026 2026 2026 2026 2026 
2026 2026 2026 2026 2026 2026 2026 2026 2026 
2026 2026 2026 2026 2026 2026 2026 2026 2026 
2026 2026 2026 2026 2026 2026 2026 2026 2026 
2026 2026 2026 2026 2026 2026 2026 2026 2026 
2026 2026 2026 2026 2026 2026 2026 2026 2026 
2026 2026 2026 2026 2026 2026 2026 2026 2026 
2026 2026 2026 2026 2026 2026 2026 2026 2026 
2026 2026 2026 2026 2026 2026 2026 2026 2026 
2026 2026 2026 2026 2026 2026 2026 2026 2026 
2026 2026 2026 2026 2026 2026 2026 2026 2026 
2026 2026 2026 2026 2026 2026 2026 2026 2026 
2026 2026 2026 2026 2026 2026 2026 2026 2026 
2026 2026 2026 2026 2026 2026 2026 2026 2026 
2026 2026 2026 2026 2026 2026 2026 2026 2026 
2026 2026 2026 2026 2026 2026 2026 2026 2026 
2026 2026 2026 2026 2026 2026 2026 2026 2026 
2026 2026 2026 2026 2026 2026 2026 2026 2026 
2026 2026 2026 2026 2026 2026 2026 2026 2026 
2026 2026 2026 2026 2026 2026 2026 2026 2026 
2026 2026 2026 2026 2026 2026 2026 2026 2026 
2026 2026 2026 2026 2026 2026 2026 2026 2026 
2026 2026 2026 2026 2026 2026 2026 2026 2026 
2026 2026 2026 2026 2026 2026 2026 2026 2026 