# vtk DataFile Version 4.0
vtk output
ASCII
DATASET POLYDATA
POINTS 4632 float
66.9849 -24.2722 2.96837 66.9873 -24.4679 3.15561 67.4108 -24.6369 2.97158 
66.579 -24.6272 2.96927 66.9964 -24.4766 2.77775 68.7421 -25.0959 3.92614 
68.931 -25.7485 4.42243 69.3335 -25.4111 3.82744 67.8955 -25.0207 3.77009 
68.2779 -25.438 4.33529 67.5714 -25.7824 4.01148 65.8555 -25.0372 3.74586 
65.8353 -25.6876 4.57786 66.405 -25.6869 4.21964 64.9222 -25.1453 3.75027 
65.1645 -25.4063 4.29072 64.6412 -25.6381 4.03253 68.9693 -25.0134 2.99851 
69.4841 -25.5274 2.97325 68.2713 -24.8046 3.15755 66.9389 -25.2605 3.62436 
65.8741 -24.758 2.95007 65.2591 -25.0463 2.88674 64.5869 -25.581 3.31252 
69.0705 -25.1478 2.13148 69.3651 -25.7621 2.0181 68.1714 -25.0375 2.15899 
67.1423 -25.291 2.32829 67.741 -25.4304 1.89707 66.0367 -25.0537 2.26443 
66.4057 -25.7823 1.93093 65.4663 -25.3948 2.04122 64.93 -25.7465 2.47076 
68.8241 -25.4317 1.60375 68.2836 -25.7038 1.63964 65.8819 -25.6519 1.7114 
65.8216 -26.2071 5.03467 66.0848 -26.7372 5.24063 66.2997 -26.3091 4.80251 
65.5536 -26.8282 5.1125 68.9334 -26.7249 4.44527 69.4604 -26.1764 3.93363 
68.1748 -26.2126 4.42704 67.4732 -26.803 3.97239 66.6422 -26.4893 4.13182 
65.1135 -26.1523 4.58791 64.5263 -26.4257 3.89348 69.5849 -26.425 2.94467 
66.99 -26.5589 3.72785 64.5166 -26.4925 3.09344 69.433 -26.7489 2.03876 
67.8394 -25.9079 1.97718 68.349 -26.4281 1.84882 67.7718 -26.6752 2.30703 
66.9862 -26.3195 2.28983 66.4959 -26.7669 1.95288 65.4416 -26.148 1.84704 
64.9084 -26.7276 2.38102 68.9383 -26.3664 1.61213 65.9657 -26.4627 1.65054 
66.1796 -27.5846 5.32126 66.524 -27.2902 4.73716 65.4693 -27.7833 5.07567 
69.098 -27.836 4.39893 69.5949 -27.4316 3.79065 68.1331 -27.2569 4.37904 
67.3905 -27.6955 4.14917 66.7295 -27.3178 3.94397 64.9195 -27.2074 4.54811 
64.5243 -27.478 3.83961 69.5747 -27.3007 2.76887 67.0258 -27.3777 3.74492 
64.5281 -27.5308 3.08203 69.631 -27.6951 2.08085 68.5367 -27.2941 1.98559 
68.0021 -27.7366 2.39253 67.2231 -27.3892 2.36142 66.6481 -27.6058 1.94166 
65.4526 -27.165 1.86166 64.9213 -27.7516 2.41256 69.1798 -27.6383 1.70637 
66.0934 -27.5964 1.66798 61.0405 -28.2078 8.67624 61.1292 -28.506 9.31538 
61.5702 -28.3544 8.87854 60.6305 -28.513 9.09938 63.7617 -28.0976 7.7819 
64.2376 -28.5902 8.40149 64.365 -28.4083 7.69158 62.7905 -28.0285 7.81964 
63.3286 -28.4331 8.46944 61.797 -28.0534 8.15697 62.3351 -28.4143 8.59261 
61.2218 -28.1231 7.76186 60.4763 -28.6393 8.06483 64.0868 -28.1493 7.14454 
64.3975 -28.7506 7.05548 63.3258 -28.0163 7.04001 62.1712 -28.0642 7.16187 
61.4123 -28.3437 7.05636 60.9039 -28.568 7.33755 63.7746 -28.5559 6.58106 
62.7957 -28.5564 6.49259 61.8056 -28.7117 6.58538 67.023 -28.0753 4.84118 
66.7602 -28.5942 5.54186 67.3937 -28.7958 5.15785 66.0111 -28.3212 5.40809 
65.4927 -28.7804 5.03468 69.9259 -28.1551 4.11714 69.7943 -28.561 4.22745 
70.1808 -28.553 4.02182 68.9512 -28.7362 4.47302 67.9621 -28.4152 4.59656 
66.8968 -27.7598 4.16273 64.9197 -28.2725 4.51312 64.5408 -28.5134 3.84027 
70.021 -28.3659 3.77152 69.7472 -28.3798 3.05866 64.5497 -28.527 3.09846 
69.9593 -28.222 2.11916 70.018 -28.8003 2.37285 70.2294 -28.5369 1.93943 
68.491 -28.2475 2.03697 67.7734 -28.3208 2.29109 67.1326 -28.1164 2.1201 
67.5007 -28.7509 1.83328 65.5445 -28.1686 1.9168 65.1289 -28.7801 2.46546 
62.8369 -28.0603 1.81874 62.9252 -28.7575 2.35891 63.5391 -28.43 1.8947 
61.8561 -28.055 2.04779 62.1805 -28.422 2.41223 61.049 -28.1257 1.85769 
61.3132 -28.5506 2.57347 60.1957 -28.2223 1.93005 60.3417 -28.4074 2.48894 
59.6544 -28.7485 2.07676 69.9067 -28.4652 1.52101 69.0013 -28.5293 1.60179 
66.7507 -28.3692 1.71448 66.2603 -28.6958 1.67411 63.8309 -28.0265 0.954377 
64.0679 -28.746 1.4814 64.5412 -28.4237 0.872409 63.0381 -27.8764 1.01023 
62.1968 -28.0543 1.05306 61.353 -28.5998 0.928521 60.6304 -28.411 1.40534 
59.9806 -28.5784 1.51036 51.0267 -28.3391 0.966545 50.9562 -28.7065 1.3615 
51.3277 -28.4042 0.968485 50.6174 -28.5927 1.04716 49.0099 -28.3821 1.03575 
49.2941 -28.7095 1.23076 49.25 -28.5118 0.813492 48.6564 -28.6644 1.22856 
64.7241 -28.0573 0.0409294 65.2064 -28.7751 0.449076 65.4733 -28.4043 -0.356458 
64.0493 -27.8654 -0.0372806 63.2514 -28.0292 0.0143448 62.456 -28.3711 0.102043 
61.9546 -28.5791 0.395307 51.1592 -28.6087 0.688076 48.8117 -28.4905 0.778282 
65.0082 -28.1396 -0.825558 65.3493 -28.4773 -1.16533 64.2144 -28.0661 -0.831045 
63.556 -28.4097 -0.914805 62.8322 -28.7885 -0.500688 64.7014 -28.6198 -1.51984 
64.0244 -28.6555 -1.33735 64.8004 -29.1737 9.75379 65.0533 -29.7418 10.4758 
65.332 -29.4275 9.75419 64.4871 -29.6027 10.0648 61.918 -29.1753 9.93154 
61.7919 -29.7141 10.3423 62.471 -29.4205 9.79997 60.8255 -28.9458 9.82137 
60.9906 -29.5537 10.5191 59.9169 -29.206 9.81253 60.1738 -29.4598 10.3498 
59.6468 -29.714 10.0714 64.9324 -29.0875 9.00055 65.4297 -29.7922 8.92152 
64.0135 -29.4968 9.59239 63.9675 -28.9548 9.11266 62.7838 -28.9563 9.19203 
63.0353 -29.6196 9.465 61.813 -28.751 9.32081 60.0541 -28.9154 8.9262 
59.4164 -29.6295 9.28225 65.1261 -29.4278 8.467 64.7378 -29.0805 7.94915 
59.9683 -29.018 8.07846 59.5266 -29.3969 8.27805 64.4731 -29.6023 7.15802 
61.138 -28.87 6.82959 60.6233 -29.2527 7.12021 59.8615 -29.6312 7.53934 
66.849 -29.1931 5.95346 67.2724 -29.794 6.2083 67.4035 -29.3641 5.67058 
66.5919 -29.7854 6.03011 63.9508 -29.4056 6.57025 63.0806 -29.4314 6.34597 
62.0182 -29.5172 6.35249 61.1407 -29.5467 6.58235 69.7949 -29.3029 4.87023 
69.9549 -29.684 5.45258 70.319 -29.7711 5.04662 69.0103 -29.2229 4.75371 
69.2665 -29.4834 5.21366 68.4956 -29.6999 5.18875 67.7141 -29.2781 5.01303 
66.1778 -29.1991 5.55076 65.4969 -29.8067 5.0257 70.0003 -28.757 3.84028 
70.0661 -29.5247 4.57787 69.6615 -29.272 4.1165 68.2344 -29.282 4.76057 
64.9472 -29.2954 4.49044 64.5698 -29.4992 3.8488 69.6631 -29.4852 3.10861 
64.6688 -29.4378 3.14582 60.7074 -28.9886 3.05972 60.9187 -29.8009 3.34886 
61.3936 -29.348 2.99457 59.7277 -28.951 2.93989 60.0578 -29.5802 3.43331 
58.7481 -29.099 2.96908 59.0376 -29.5759 3.40797 57.744 -29.0387 2.89404 
58.0075 -29.574 3.38311 56.734 -29.0251 2.84437 57.0052 -29.5663 3.37428 
55.8075 -29.1309 2.73539 56.085 -29.588 3.29645 55.4149 -29.6036 3.06825 
70.0172 -29.745 2.46994 70.4876 -29.2927 1.7827 68.2847 -28.7913 1.76081 
65.8311 -28.9424 2.01212 66.3695 -29.4357 1.8973 65.8557 -29.5757 2.27588 
65.2318 -29.7028 2.68385 62.9169 -29.7433 2.42235 63.5788 -29.2052 2.0586 
62.0749 -29.3368 2.68181 59.08 -29.2195 2.34383 59.3484 -29.5351 1.75272 
58.6533 -29.6233 1.94385 58.2691 -29.1091 2.30079 57.3197 -29.0214 2.15224 
56.2685 -29.0336 2.102 55.0794 -29.376 2.65803 55.1096 -29.1607 2.09368 
53.9006 -29.165 1.85266 54.2928 -29.4482 2.49235 52.7553 -29.0554 1.86685 
53.2683 -29.4444 2.47296 51.836 -29.0975 1.97373 52.1024 -29.5727 2.4955 
51.2397 -29.0541 1.81954 51.1092 -29.6244 2.30273 50.5005 -29.5159 1.97536 
47.9528 -29.1752 1.67646 48.154 -29.8647 2.29004 48.5014 -29.5133 2.0067 
47.4083 -29.6491 2.10351 70.7677 -29.0355 0.962204 71.0298 -29.5726 1.2362 
71.364 -29.5393 0.637683 69.9121 -28.8671 0.756322 68.9234 -28.8802 0.985021 
67.8894 -29.1596 1.0319 67.0882 -29.4806 1.4812 67.5832 -29.5979 0.851049 
64.0505 -29.7172 1.53561 64.5626 -29.2043 1.0317 60.8646 -28.8357 0.961657 
60.3068 -29.0034 0.991953 59.6926 -29.299 1.26511 57.99 -29.5956 1.70811 
56.9556 -29.5428 1.44092 55.7428 -29.4416 1.42565 54.6964 -29.4475 1.4182 
53.9268 -29.3688 1.26734 53.6273 -29.6278 0.86963 53.203 -29.1377 1.22314 
51.9725 -28.8519 1.15536 50.0367 -28.7689 0.690895 49.9962 -29.1242 1.48835 
48.9966 -29.3081 1.70843 48.0209 -28.8028 0.708953 47.1052 -29.3909 1.6222 
46.9081 -29.0994 0.84448 46.5222 -29.4938 1.1825 71.1432 -29.2048 0.231864 
71.3835 -29.6962 -0.0253825 70.362 -29.1063 0.143799 69.1274 -29.0898 -0.0334801 
67.9448 -29.1238 -0.0731419 67.5726 -29.7556 0.177676 66.0049 -28.9422 -0.165904 
65.8109 -29.6875 0.307312 66.4951 -29.4618 -0.203465 65.0235 -29.6287 0.686088 
62.1645 -28.8865 -0.104592 61.5823 -29.2081 0.1679 60.7685 -29.5484 0.451805 
60.0246 -29.7488 0.707318 52.8683 -29.6986 0.613725 51.8536 -29.3463 0.369425 
50.9865 -29.0922 0.106091 51.4748 -29.8431 -0.0828071 50.0466 -29.0664 -0.220311 
48.945 -28.797 0.102383 47.9967 -28.9032 -0.0375439 47.1023 -29.0335 -0.213147 
46.0889 -29.3575 0.540769 46.0604 -29.1219 -0.119182 45.6052 -29.663 0.127373 
70.8883 -29.4858 -0.267227 69.9365 -29.5999 -0.520848 68.9099 -29.3855 -0.695677 
68.725 -29.3634 -1.19661 68.1311 -29.0384 -1.09412 67.1063 -29.6129 -0.352933 
66.8618 -29.0395 -0.900864 65.8917 -28.7647 -1.06956 63.4592 -29.1326 -1.05189 
62.7283 -29.6986 -0.72357 61.9532 -29.6131 -0.359072 50.8186 -29.5013 -0.333971 
50.134 -29.6236 -0.516218 49.4692 -29.7898 -0.927799 49.2385 -29.1581 -0.818789 
48.1858 -29.1296 -0.826603 47.4559 -29.5502 -1.14212 46.7892 -29.3288 -0.816852 
46.4443 -29.6352 -1.2591 46.1637 -29.171 -0.793028 45.5785 -29.5511 -0.740112 
68.7432 -29.1934 -1.80882 69.1724 -29.5006 -1.6157 69.2864 -29.4457 -2.04339 
68.1635 -29.0716 -2.06733 67.2727 -29.0427 -1.9518 66.2649 -29.053 -1.95377 
65.3664 -28.9966 -1.93493 64.7946 -29.3408 -1.98704 64.1051 -29.6583 -1.52866 
48.724 -29.5679 -1.42383 48.1294 -29.5518 -1.43198 45.8451 -29.6852 -1.26299 
68.9451 -29.6976 -2.50701 67.7621 -29.5635 -2.46893 66.7139 -29.5628 -2.45324 
65.8678 -29.4893 -2.42583 65.3128 -29.7502 -2.29099 66.8226 -30.3159 11.0854 
66.9678 -30.6036 11.1488 67.2129 -30.4918 11.0038 65.9075 -30.1503 10.8827 
66.1127 -30.6187 11.3828 65.1132 -30.0208 11.0479 65.0753 -30.556 11.3403 
64.5093 -30.4438 11.0478 61.0468 -30.2099 10.897 60.9872 -30.5649 11.1794 
61.2043 -30.5375 10.9833 60.5961 -30.6148 10.9207 66.8156 -30.5055 10.857 
66.2379 -30.564 10.5071 65.7104 -30.3404 9.85527 63.9235 -30.028 9.89495 
64.0195 -30.4828 10.5258 63.4374 -30.6281 10.0358 62.2364 -29.9226 9.89099 
61.4661 -30.5321 10.2836 60.1561 -30.1702 10.5474 59.5436 -30.4492 9.86674 
65.6038 -30.4622 8.98998 63.2515 -30.2221 9.63736 62.2189 -30.5542 9.68427 
[...]
CELL_DATA 9272
SCALARS scalars float
LOOKUP_TABLE default
2001 2001 2001 2001 2001 2001 2001 2001 2001 
2001 2001 2001 2001 2001 2001 2001 2001 2001 
2001 2001 2001 2001 2001 2001 2001 2001 2001 
2001 2001 2001 2001 2001 2001 2001 2001 2001 
2001 2001 2001 2001 2001 2001 2001 2001 2001 
2001 2001 2001 2001 2001 2001 2001 2001 2001 
2001 2001 2001 2001 2001 2001 2001 2001 2001 
2001 2001 2001 2001 2001 2001 2001 2001 2001 
2001 2001 2001 2001 2001 2001 2001 2001 2001 
2001 2001 2001 2001 2001 2001 2001 2001 2001 
2001 2001 2001 2001 2001 2001 2001 2001 2001 
2001 2001 2001 2001 2001 2001 2001 2001 2001 
2001 2001 2001 2001 2001 2001 2001 2001 2001 
2001 2001 2001 2001 2001 2001 2001 2001 2001 
2001 2001 2001 2001 2001 2001 2001 2001 2001 
2001 2001 2001 2001 2001 2001 2001 2001 2001 
2001 2001 2001 2001 2001 2001 2001 2001 2001 
2001 2001 2001 2001 2001 2001 2001 2001 2001 
2001 2001 2001 2001 2001 2001 2001 2001 2001 
2001 2001 2001 2001 2001 2001 2001 2001 2001 
2001 2001 2001 2001 2001 2001 2001 2001 2001 
2001 2001 2001 2001 2001 2001 2001 2001 2001 
2001 2001 2001 2001 2001 2001 2001 2001 2001 
2001 2001 2001 2001 2001 2001 2001 2001 2001 
2001 2001 2001 2001 2001 2001 2001 2001 2001 
2001 2001 2001 2001 2001 2001 2001 2001 2001 
2001 2001 2001 2001 2001 2001 2001 2001 2001 
2001 2001 2001 2001 2001 2001 2001 2001 2001 
2001 2001 2001 2001 2001 2001 2001 2001 2001 
2001 2001 2001 2001 2001 2001 2001 2001 2001 
2001 2001 2001 2001 2001 2001 2001 2001 2001 
2001 2001 2001 2001 2001 2001 2001 2001 2001 
2001 2001 2001 2001 2001 2001 2001 2001 2001 
2001 2001 2001 2001 2001 2001 2001 2001 2001 
2001 2001 2001 2001 2001 2001 2001 2001 2001 
2001 2001 2001 2001 2001 2001 2001 2001 2001 
2001 2001 2001 2001 2001 2001 2001 2001 2001 
2001 2001 2001 2001 2001 2001 2001 2001 2001 
2001 2001 2001 2001 2001 2001 2001 2001 2001 
2001 2001 2001 2001 2001 2001 2001 2001 2001 
2001 2001 2001 2001 2001 2001 2001 2001 2001 
2001 2001 2001 2001 2001 2001 2001 2001 2001 
2001 2001 2001 2001 2001 2001 2001 2001 2001 
2001 2001 2001 2001 2001 2001 2001 2001 2001 
2001 2001 2001 2001 2001 2001 2001 2001 2001 
2001 2001 2001 2001 2001 2001 2001 2001 2001 
2001 2001 2001 2001 2001 2001 2001 2001 2001 
2001 2001 2001 2001 2001 2001 2001 2001 2001 
2001 2001 2001 2001 2001 2001 2001 2001 2001 
2001 2001 2001 2001 2001 2001 2001 2001 2001 
2001 2001 2001 2001 2001 2001 2001 2001 2001 
2001 2001 2001 2001 2001 2001 2001 2001 2001 
2001 2001 2001 2001 2001 2001 2001 2001 2001 
2001 2001 2001 2001 2001 2001 2001 2001 2001 
2001 2001 2001 2001 2001 2001 2001 2001 2001 
2001 2001 2001 2001 2001 2001 2001 2001 2001 
2001 2001 2001 2001 2001 2001 2001 2001 2001 
2001 2001 2001 2001 2001 2001 2001 2001 2001 
2001 2001 2001 2001 2001 2001 2001 2001 2001 
2001 2001 2001 2001 2001 2001 2001 2001 2001 
2001 2001 2001 2001 2001 2001 2001 2001 2001 
2001 2001 2001 2001 2001 2001 2001 2001 2001 
2001 2001 2001 2001 2001 2001 2001 2001 2001 
2001 2001 2001 2001 2001 2001 2001 2001 2001 
2001 2001 2001 2001 2001 2001 2001 2001 2001 
2001 2001 2001 2001 2001 2001 2001 2001 2001 
2001 2001 2001 2001 2001 2001 2001 2001 2001 
2001 2001 2001 2001 2001 2001 2001 2001 2001 
2001 2001 2001 2001 2001 2001 2001 2001 2001 
2001 2001 2001 2001 2001 2001 2001 2001 2001 
2001 2001 2001 2001 2001 2001 2001 2001 2001 
2001 2001 2001 2001 2001 2001 2001 2001 2001 
2001 2001 2001 2001 2001 2001 2001 2001 2001 
2001 2001 2001 2001 2001 2001 2001 2001 2001 
2001 2001 2001 2001 2001 2001 2001 2001 2001 
2001 2001 2001 2001 2001 2001 2001 2001 2001 
2001 2001 2001 2001 2001 2001 2001 2001 2001 
2001 2001 2001 2001 2001 2001 2001 2001 2001 
2001 2001 2001 2001 2001 2001 2001 2001 2001 
2001 2001 2001 2001 2001 2001 2001 2001 2001 
2001 2001 2001 2001 2001 2001 2001 2001 2001 
2001 2001 2001 2001 2001 2001 2001 2001 2001 
2001 2001 2001 2001 2001 2001 2001 2001 2001 
2001 2001 2001 2001 2001 2001 2001 2001 2001 
2001 2001 2001 2001 2001 2001 2001 2001 2001 
2001 2001 2001 2001 2001 2001 2001 2001 2001 
2001 2001 2001 2001 2001 2001 2001 2001 2001 
2001 2001 2001 2001 2001 2001 2001 2001 2001 
2001 2001 2001 2001 2001 2001 2001 2001 2001 
2001 2001 2001 2001 2001 2001 2001 2001 2001 
2001 2001 2001 2001 2001 2001 2001 2001 2001 
2001 2001 2001 2001 2001 2001 2001 2001 2001 
2001 2001 2001 2001 2001 2001 2001 2001 2001 
2001 2001 2001 2001 2001 2001 2001 2001 2001 
2001 2001 2001 2001 2001 2001 2001 2001 2001 
2001 2001 2001 2001 2001 2001 2001 2001 2001 
2001 2001 2001 2001 2001 2001 2001 2001 2001 
2001 2001 2001 2001 2001 2001 2001 2001 2001 
2001 2001 2001 2001 2001 2001 2001 2001 2001 
2001 2001 2001 2001 2001 2001 2001 2001 2001 
2001 2001 2001 2001 2001 2001 2001 2001 2001 
2001 2001 2001 2001 2001 2001 2001 2001 2001 
2001 2001 2001 2001 2001 2001 2001 2001 2001 
2001 2001 2001 2001 2001 2001 2001 2001 2001 
2001 2001 2001 2001 2001 2001 2001 2001 2001 
2001 2001 2001 2001 2001 2001 2001 2001 2001 
2001 2001 2001 2001 2001 2001 2001 2001 2001 
2001 2001 2001 2001 2001 2001 2001 2001 2001 
2001 2001 2001 2001 2001 2001 2001 2001 2001 
2001 2001 2001 2001 2001 2001 2001 2001 2001 
2001 2001 2001 2001 2001 2001 2001 2001 2001 
2001 2001 2001 2001 2001 2001 2001 2001 2001 
2001 2001 2001 2001 2001 2001 2001 2001 2001 
2001 2001 2001 2001 2001 2001 2001 2001 2001 
2001 2001 2001 2001 2001 2001 2001 2001 2001 
2001 2001 2001 2001 2001 2001 2001 2001 2001 
2001 2001 2001 2001 2001 2001 2001 2001 2001 
2001 2001 2001 2001 2001 2001 2001 2001 2001 
2001 2001 2001 2001 2001 2001 2001 2001 2001 
2001 2001 2001 2001 2001 2001 2001 2001 2001 
2001 2001 2001 2001 2001 2001 2001 2001 2001 
2001 2001 2001 2001 2001 2001 2001 2001 2001 
2001 2001 2001 2001 2001 2001 2001 2001 2001 
2001 2001 2001 2001 2001 2001 2001 2001 2001 
2001 2001 2001 2001 2001 2001 2001 2001 2001 
2001 2001 2001 2001 2001 2001 2001 2001 2001 
2001 2001 2001 2001 2001 2001 2001 2001 2001 
2001 2001 2001 2001 2001 2001 2001 2001 2001 
2001 2001 2001 2001 2001 2001 2001 2001 2001 
2001 2001 2001 2001 2001 2001 2001 2001 2001 
2001 2001 2001 2001 2001 2001 2001 2001 2001 
2001 2001 2001 2001 2001 2001 2001 2001 2001 
2001 2001 2001 2001 2001 2001 2001 2001 2001 
2001 2001 2001 2001 2001 2001 2001 2001 2001 
2001 2001 2001 2001 2001 2001 2001 2001 2001 
2001 2001 2001 2001 2001 2001 2001 2001 2001 
2001 2001 2001 2001 2001 2001 2001 2001 2001 
2001 2001 2001 2001 2001 2001 2001 2001 2001 
2001 2001 2001 2001 2001 2001 2001 2001 2001 
2001 2001 2001 2001 2001 2001 2001 2001 2001 
2001 2001 2001 2001 2001 2001 2001 2001 2001 
2001 2001 2001 2001 2001 2001 2001 2001 2001 
2001 2001 2001 2001 2001 2001 2001 2001 2001 
2001 2001 2001 2001 2001 2001 2001 2001 2001 
2001 2001 2001 2001 2001 2001 2001 2001 2001 
2001 2001 2001 2001 2001 2001 2001 2001 2001 
2001 2001 2001 2001 2001 2001 2001 2001 2001 
2001 2001 2001 2001 2001 2001 2001 2001 2001 
2001 2001 2001 2001 2001 2001 2001 2001 2001 
2001 2001 2001 2001 2001 2001 2001 2001 2001 
2001 2001 2001 2001 2001 2001 2001 2001 2001 
2001 2001 2001 2001 2001 2001 2001 2001 2001 
2001 2001 2001 2001 2001 2001 2001 2001 2001 
2001 2001 2001 2001 2001 2001 2001 2001 2001 
2001 2001 2001 2001 2001 2001 2001 2001 2001 
2001 2001 2001 2001 2001 2001 2001 2001 2001 
2001 2001 2001 2001 2001 2001 2001 2001 2001 
2001 2001 2001 2001 2001 2001 2001 2001 2001 
2001 2001 2001 2001 2001 2001 2001 2001 2001 
2001 2001 2001 2001 2001 2001 2001 2001 2001 
2001 2001 2001 2001 2001 2001 2001 2001 2001 
2001 2001 2001 2001 2001 2001 2001 2001 2001 
2001 2001 2001 2001 2001 2001 2001 2001 2001 
2001 2001 2001 2001 2001 2001 2001 2001 2001 
2001 2001 2001 2001 2001 2001 2001 2001 2001 
2001 2001 2001 2001 2001 2001 2001 2001 2001 
2001 2001 2001 2001 2001 2001 2001 2001 2001 
2001 2001 2001 2001 2001 2001 2001 2001 2001 
2001 2001 2001 2001 2001 2001 2001 2001 2001 
2001 2001 2001 2001 2001 2001 2001 2001 2001 
2001 2001 2001 2001 2001 2001 2001 2001 2001 
2001 2001 2001 2001 2001 2001 2001 2001 2001 
2001 2001 2001 2001 2001 2001 2001 2001 2001 
2001 2001 2001 2001 2001 2001 2001 2001 2001 
2001 2001 2001 2001 2001 2001 2001 2001 2001 
2001 2001 2001 2001 2001 2001 2001 2001 2001 
2001 2001 2001 2001 2001 2001 2001 2001 2001 
2001 2001 2001 2001 2001 2001 2001 2001 2001 
2001 2001 2001 2001 2001 2001 2001 2001 2001 
2001 2001 2001 2001 2001 2001 2001 2001 2001 
2001 2001 2001 2001 2001 2001 2001 2001 2001 
2001 2001 2001 2001 2001 2001 2001 2001 2001 
2001 2001 2001 2001 2001 2001 2001 2001 2001 
2001 2001 2001 2001 2001 2001 2001 2001 2001 
2001 2001 2001 2001 2001 2001 2001 2001 2001 
2001 2001 2001 2001 2001 2001 2001 2001 2001 
2001 2001 2001 2001 2001 2001 2001 2001 2001 
2001 2001 2001 2001 2001 2001 2001 2001 2001 
2001 2001 2001 2001 2001 2001 2001 2001 2001 
2001 2001 2001 2001 2001 2001 2001 2001 2001 
2001 2001 2001 2001 2001 2001 2001 2001 2001 
2001 2001 2001 2001 2001 2001 2001 2001 2001 
2001 2001 2001 2001 2001 2001 2001 2001 2001 
2001 2001 2001 2001 2001 2001 2001 2001 2001 
2001 2001 2001 2001 2001 2001 2001 2001 2001 
2001 2001 2001 2001 2001 2001 2001 2001 2001 
2001 2001 2001 2001 2001 2001 2001 2001 2001 
2001 2001 2001 2001 2001 2001 2001 2001 2001 
2001 2001 2001 2001 2001 2001 2001 2001 2001 
2001 2001 2001 2001 2001 2001 2001 2001 2001 
2001 2001 2001 2001 2001 2001 2001 2001 2001 
2001 2001 2001 2001 2001 2001 2001 2001 2001 
2001 2001 2001 2001 2001 2001 2001 2001 2001 
2001 2001 2001 2001 2001 2001 2001 2001 2001 
2001 2001 2001 2001 2001 2001 2001 2001 2001 
2001 2001 2001 2001 2001 2001 2001 2001 2001 
2001 2001 2001 2001 2001 2001 2001 2001 2001 
2001 2001 2001 2001 2001 2001 2001 2001 2001 
2001 2001 2001 2001 2001 2001 2001 2001 2001 
2001 2001 2001 2001 2001 2001 2001 2001 2001 
2001 2001 2001 2001 2001 2001 2001 2001 2001 
2001 2001 2001 2001 2001 2001 2001 2001 2001 
2001 2001 2001 2001 2001 2001 2001 2001 2001 
2001 2001 2001 2001 2001 2001 2001 2001 2001 
2001 2001 2001 2001 2001 2001 2001 2001 2001 
2001 2001 2001 2001 2001 2001 2001 2001 2001 
2001 2001 2001 2001 2001 2001 2001 2001 2001 
2001 2001 2001 2001 2001 2001 2001 2001 2001 
2001 2001 2001 2001 2001 2001 2001 2001 2001 
2001 2001 2001 2001 2001 2001 2001 2001 2001 
2001 2001 2001 2001 2001 2001 2001 2001 2001 
2001 2001 2001 2001 2001 2001 2001 2001 2001 
2001 2001 2001 2001 2001 2001 2001 2001 2001 
2001 2001 2001 2001 2001 2001 2001 2001 2001 
2001 2001 2001 2001 2001 2001 2001 2001 2001 
2001 2001 2001 2001 2001 2001 2001 2001 2001 
2001 2001 2001 2001 2001 2001 2001 2001 2001 
2001 2001 2001 2001 2001 2001 2001 2001 2001 
2001 2001 2001 2001 2001 2001 2001 2001 2001 
2001 2001 2001 2001 2001 2001 2001 2001 2001 
2001 2001 2001 2001 2001 2001 2001 2001 2001 
2001 2001 2001 2001 2001 2001 2001 2001 2001 
2001 2001 2001 2001 2001 2001 2001 2001 2001 
2001 2001 2001 2001 2001 2001 2001 2001 2001 
2001 2001 2001 2001 2001 2001 2001 2001 2001 
2001 2001 2001 2001 2001 2001 2001 2001 2001 
2001 2001 2001 2001 2001 2001 2001 2001 2001 
2001 2001 2001 2001 2001 2001 2001 2001 2001 
2001 2001 2001 2001 2001 2001 2001 2001 2001 
2001 2001 2001 2001 2001 2001 2001 2001 2001 
2001 2001 2001 2001 2001 2001 2001 2001 2001 
2001 2001 2001 2001 2001 2001 2001 2001 2001 
2001 2001 2001 2001 2001 2001 2001 2001 2001 
2001 2001 2001 2001 2001 2001 2001 2001 2001 
2001 2001 2001 2001 2001 2001 2001 2001 2001 
2001 2001 2001 2001 2001 2001 2001 2001 2001 
2001 2001 2001 2001 2001 2001 2001 2001 2001 
2001 2001 2001 2001 2001 2001 2001 2001 2001 
2001 2001 2001 2001 2001 2001 2001 2001 2001 
2001 2001 2001 2001 2001 2001 2001 2001 2001 
2001 2001 2001 2001 2001 2001 2001 2001 2001 
2001 2001 2001 2001 2001 2001 2001 2001 2001 
2001 2001 2001 2001 2001 2001 2001 2001 2001 
2001 2001 2001 2001 2001 2001 2001 2001 2001 
2001 2001 2001 2001 2001 2001 2001 2001 2001 
2001 2001 2001 2001 2001 2001 2001 2001 2001 
2001 2001 2001 2001 2001 2001 2001 2001 2001 
2001 2001 2001 2001 2001 2001 2001 2001 2001 
2001 2001 2001 2001 2001 2001 2001 2001 2001 
2001 2001 2001 2001 2001 2001 2001 2001 2001 
2001 2001 2001 2001 2001 2001 2001 2001 2001 
2001 2001 2001 2001 2001 2001 2001 2001 2001 
2001 2001 2001 2001 2001 2001 2001 2001 2001 
2001 2001 2001 2001 2001 2001 2001 2001 2001 
2001 2001 2001 2001 2001 2001 2001 2001 2001 
2001 2001 2001 2001 2001 2001 2001 2001 2001 
2001 2001 2001 2001 2001 2001 2001 2001 2001 
2001 2001 2001 2001 2001 2001 2001 2001 2001 
2001 2001 2001 2001 2001 2001 2001 2001 2001 
2001 2001 2001 2001 2001 2001 2001 2001 2001 
2001 2001 2001 2001 2001 2001 2001 2001 2001 
2001 2001 2001 2001 2001 2001 2001 2001 2001 
2001 2001 2001 2001 2001 2001 2001 2001 2001 
2001 2001 2001 2001 2001 2001 2001 2001 2001 
2001 2001 2001 2001 2001 2001 2001 2001 2001 
2001 2001 2001 2001 2001 2001 2001 2001 2001 
2001 2001 2001 2001 2001 2001 2001 2001 2001 
2001 2001 2001 2001 2001 2001 2001 2001 2001 
2001 2001 2001 2001 2001 2001 2001 2001 2001 
2001 2001 2001 2001 2001 2001 2001 2001 2001 
2001 2001 2001 2001 2001 2001 2001 2001 2001 
2001 2001 2001 2001 2001 2001 2001 2001 2001 
2001 2001 2001 2001 2001 2001 2001 2001 2001 
2001 2001 2001 2001 2001 2001 2001 2001 2001 
2001 2001 2001 2001 2001 2001 2001 2001 2001 
2001 2001 2001 2001 2001 2001 2001 2001 2001 
2001 2001 2001 2001 2001 2001 2001 2001 2001 
2001 2001 2001 2001 2001 2001 2001 2001 2001 
2001 2001 2001 2001 2001 2001 2001 2001 2001 
2001 2001 2001 2001 2001 2001 2001 2001 2001 
2001 2001 2001 2001 2001 2001 2001 2001 2001 
2001 2001 2001 2001 2001 2001 2001 2001 2001 
2001 2001 2001 2001 2001 2001 2001 2001 2001 
2001 2001 2001 2001 2001 2001 2001 2001 2001 
2001 2001 2001 2001 2001 2001 2001 2001 2001 
2001 2001 2001 2001 2001 2001 2001 2001 2001 
2001 2001 2001 2001 2001 2001 2001 2001 2001 
2001 2001 2001 2001 2001 2001 2001 2001 2001 
2001 2001 2001 2001 2001 2001 2001 2001 2001 
2001 2001 2001 2001 2001 2001 2001 2001 2001 
2001 2001 2001 2001 2001 2001 2001 2001 2001 
2001 2001 2001 2001 2001 2001 2001 2001 2001 
2001 2001 2001 2001 2001 2001 2001 2001 2001 
2001 2001 2001 2001 2001 2001 2001 2001 2001 
2001 2001 2001 2001 2001 2001 2001 2001 2001 
2001 2001 2001 2001 2001 2001 2001 2001 2001 
2001 2001 2001 2001 2001 2001 2001 2001 2001 
2001 2001 2001 2001 2001 2001 2001 2001 2001 
2001 2001 2001 2001 2001 2001 2001 2001 2001 
2001 2001 2001 2001 2001 2001 2001 2001 2001 
2001 2001 2001 2001 2001 2001 2001 2001 2001 
2001 2001 2001 2001 2001 2001 2001 2001 2001 
2001 2001 2001 2001 2001 2001 2001 2001 2001 
2001 2001 2001 2001 2001 2001 2001 2001 2001 
2001 2001 2001 2001 2001 2001 2001 2001 2001 
2001 2001 2001 2001 2001 2001 2001 2001 2001 
2001 2001 2001 2001 2001 2001 2001 2001 2001 
2001 2001 2001 2001 2001 2001 2001 2001 2001 
2001 2001 2001 2001 2001 2001 2001 2001 2001 
2001 2001 2001 2001 2001 2001 2001 2001 2001 
2001 2001 2001 2001 2001 2001 2001 2001 2001 
2001 2001 2001 2001 2001 2001 2001 2001 2001 
2001 2001 2001 2001 2001 2001 2001 2001 2001 
2001 2001 2001 2001 2001 2001 2001 2001 2001 
2001 2001 2001 2001 2001 2001 2001 2001 2001 
2001 2001 2001 2001 2001 2001 2001 2001 2001 
2001 2001 2001 2001 2001 2001 2001 2001 2001 
2001 2001 2001 2001 2001 2001 2001 2001 2001 
2001 2001 2001 2001 2001 2001 2001 2001 2001 
2001 2001 2001 2001 2001 2001 2001 2001 2001 
2001 2001 2001 2001 2001 2001 2001 2001 2001 
2001 2001 2001 2001 2001 2001 2001 2001 2001 
2001 2001 2001 2001 2001 2001 2001 2001 2001 
2001 2001 2001 2001 2001 2001 2001 2001 2001 
2001 2001 2001 2001 2001 2001 2001 2001 2001 
2001 2001 2001 2001 2001 2001 2001 2001 2001 
2001 2001 2001 2001 2001 2001 2001 2001 2001 
2001 2001 2001 2001 2001 2001 2001 2001 2001 
2001 2001 2001 2001 2001 2001 2001 2001 2001 
2001 2001 2001 2001 2001 2001 2001 2001 2001 
2001 2001 2001 2001 2001 2001 2001 2001 2001 
2001 2001 2001 2001 2001 2001 2001 2001 2001 
2001 2001 2001 2001 2001 2001 2001 2001 2001 
2001 2001 2001 2001 2001 2001 2001 2001 2001 
2001 2001 2001 2001 2001 2001 2001 2001 2001 
2001 2001 2001 2001 2001 2001 2001 2001 2001 
2001 2001 2001 2001 2001 2001 2001 2001 2001 
2001 2001 2001 2001 2001 2001 2001 2001 2001 
2001 2001 2001 2001 2001 2001 2001 2001 2001 
2001 2001 2001 2001 2001 2001 2001 2001 2001 
2001 2001 2001 2001 2001 2001 2001 2001 2001 
2001 2001 2001 2001 2001 2001 2001 2001 2001 
2001 2001 2001 2001 2001 2001 2001 2001 2001 
2001 2001 2001 2001 2001 2001 2001 2001 2001 
2001 2001 2001 2001 2001 2001 2001 2001 2001 
2001 2001 2001 2001 2001 2001 2001 2001 2001 
2001 2001 2001 2001 2001 2001 2001 2001 2001 
2001 2001 2001 2001 2001 2001 2001 2001 2001 
2001 2001 2001 2001 2001 2001 2001 2001 2001 
2001 2001 2001 2001 2001 2001 2001 2001 2001 
2001 2001 2001 2001 2001 2001 2001 2001 2001 
2001 2001 2001 2001 2001 2001 2001 2001 2001 
2001 2001 2001 2001 2001 2001 2001 2001 2001 
2001 2001 2001 2001 2001 2001 2001 2001 2001 
2001 2001 2001 2001 2001 2001 2001 2001 2001 
2001 2001 2001 2001 2001 2001 2001 2001 2001 
2001 2001 2001 2001 2001 2001 2001 2001 2001 
2001 2001 2001 2001 2001 2001 2001 2001 2001 
2001 2001 2001 2001 2001 2001 2001 2001 2001 
2001 2001 2001 2001 2001 2001 2001 2001 2001 
2001 2001 2001 2001 2001 2001 2001 2001 2001 
2001 2001 2001 2001 2001 2001 2001 2001 2001 
2001 2001 2001 2001 2001 2001 2001 2001 2001 
2001 2001 2001 2001 2001 2001 2001 2001 2001 
2001 2001 2001 2001 2001 2001 2001 2001 2001 
2001 2001 2001 2001 2001 2001 2001 2001 2001 
2001 2001 2001 2001 2001 2001 2001 2001 2001 
2001 2001 2001 2001 2001 2001 2001 2001 2001 
2001 2001 2001 2001 2001 2001 2001 2001 2001 
2001 2001 2001 2001 2001 2001 2001 2001 2001 
2001 2001 2001 2001 2001 2001 2001 2001 2001 
2001 2001 2001 2001 2001 2001 2001 2001 2001 
2001 2001 2001 2001 2001 2001 2001 2001 2001 
2001 2001 2001 2001 2001 2001 2001 2001 2001 
2001 2001 2001 2001 2001 2001 2001 2001 2001 
2001 2001 2001 2001 2001 2001 2001 2001 2001 
2001 2001 2001 2001 2001 2001 2001 2001 2001 
2001 2001 2001 2001 2001 2001 2001 2001 2001 
2001 2001 2001 2001 2001 2001 2001 2001 2001 
2001 2001 2001 2001 2001 2001 2001 2001 2001 
2001 2001 2001 2001 2001 2001 2001 2001 2001 
2001 2001 2001 2001 2001 2001 2001 2001 2001 
2001 2001 2001 2001 2001 2001 2001 2001 2001 
2001 2001 2001 2001 2001 2001 2001 2001 2001 
2001 2001 2001 2001 2001 2001 2001 2001 2001 
2001 2001 2001 2001 2001 2001 2001 2001 2001 
2001 2001 2001 2001 2001 2001 2001 2001 2001 
2001 2001 2001 2001 2001 2001 2001 2001 2001 
2001 2001 2001 2001 2001 2001 2001 2001 2001 
2001 2001 2001 2001 2001 2001 2001 2001 2001 
2001 2001 2001 2001 2001 2001 2001 2001 2001 
2001 2001 2001 2001 2001 2001 2001 2001 2001 
2001 2001 2001 2001 2001 2001 2001 2001 2001 
2001 2001 2001 2001 2001 2001 2001 2001 2001 
2001 2001 2001 2001 2001 2001 2001 2001 2001 
2001 2001 2001 2001 2001 2001 2001 2001 2001 
2001 2001 2001 2001 2001 2001 2001 2001 2001 
2001 2001 2001 2001 2001 2001 2001 2001 2001 
2001 2001 2001 2001 2001 2001 2001 2001 2001 
2001 2001 2001 2001 2001 2001 2001 2001 2001 
2001 2001 2001 2001 2001 2001 2001 2001 2001 
2001 2001 2001 2001 2001 2001 2001 2001 2001 
2001 2001 2001 2001 2001 2001 2001 2001 2001 
2001 2001 2001 2001 2001 2001 2001 2001 2001 
2001 2001 2001 2001 2001 2001 2001 2001 2001 
2001 2001 2001 2001 2001 2001 2001 2001 2001 
2001 2001 2001 2001 2001 2001 2001 2001 2001 
2001 2001 2001 2001 2001 2001 2001 2001 2001 
2001 2001 2001 2001 2001 2001 2001 2001 2001 
2001 2001 2001 2001 2001 2001 2001 2001 2001 
2001 2001 2001 2001 2001 2001 2001 2001 2001 
2001 2001 2001 2001 2001 2001 2001 2001 2001 
2001 2001 2001 2001 2001 2001 2001 2001 2001 
2001 2001 2001 2001 2001 2001 2001 2001 2001 
2001 2001 2001 2001 2001 2001 2001 2001 2001 
2001 2001 2001 2001 2001 2001 2001 2001 2001 
2001 2001 2001 2001 2001 2001 2001 2001 2001 
2001 2001 2001 2001 2001 2001 2001 2001 2001 
2001 2001 2001 2001 2001 2001 2001 2001 2001 
2001 2001 2001 2001 2001 2001 2001 2001 2001 
2001 2001 2001 2001 2001 2001 2001 2001 2001 
2001 2001 2001 2001 2001 2001 2001 2001 2001 
2001 2001 2001 2001 2001 2001 2001 2001 2001 