# vtk DataFile Version 4.0
vtk output
ASCII
DATASET POLYDATA
POINTS 1568 float
-10.1783 71.8353 2.7605 -9.87495 71.4384 3.35859 -9.39105 71.5768 2.85043 
-11.2652 71.8982 2.86566 -10.6947 71.507 3.52574 -12.2722 71.925 2.85523 
-11.7038 71.5322 3.54052 -13.2779 71.9332 2.84752 -12.7318 71.5422 3.52671 
-14.2743 71.9272 2.8073 -13.9143 71.4493 3.51473 -15.032 71.8162 2.75115 
-14.8044 71.561 3.25482 -15.5062 71.3699 3.13934 -7.15059 71.8358 1.7719 
-6.87122 71.4478 2.33406 -6.34383 71.5905 1.85559 -8.25537 71.87 1.85601 
-7.72763 71.4779 2.49212 -9.30196 71.8973 2.03281 -8.66387 71.5074 2.5947 
-10.1882 72.0216 1.82529 -11.0219 72.0298 1.96815 -12.0248 72.0556 1.99823 
-12.8603 72.0699 2.13302 -13.7309 71.9349 1.90952 -14.7102 71.8492 2.09893 
-15.4944 71.5595 2.32796 -6.30245 71.7672 1.10669 -5.76989 71.437 1.42407 
-5.67012 71.4146 0.841457 -7.17319 72.0183 0.845245 -8.03436 72.0445 0.955554 
-9.03684 72.0205 0.976075 -9.8596 72.0145 1.12111 -10.7461 71.9015 0.921916 
-11.7887 71.9066 1.11455 -12.8377 71.871 1.21028 -13.6367 71.3426 0.89049 
-14.3424 71.5366 1.37508 -15.1262 71.4825 1.64259 -6.12259 71.5679 0.398132 
-6.40301 71.5203 -0.388883 -6.96541 71.9092 0.0210195 -7.99969 72.0533 -0.0509063 
-8.85314 72.025 0.083224 -9.83798 71.8369 0.007359 -10.6637 71.5515 0.117464 
-11.396 71.5179 0.393441 -12.3145 71.5127 0.476041 -13.0419 71.3324 0.483022 
-7.13615 71.8732 -1.08434 -6.51896 71.5209 -1.37071 -7.84868 72.0234 -0.912515 
-8.84282 71.8561 -1.04034 -9.66944 71.5294 -0.9167 -10.2361 71.4062 -0.459603 
-7.05867 71.7698 -1.8851 -6.66942 71.4648 -2.21993 -7.8708 71.8451 -1.86972 
-8.62314 71.5776 -1.97363 -9.2353 71.4315 -1.5366 -7.32956 71.5168 -2.55831 
-8.11176 71.4608 -2.48445 -11.9467 71.7348 -6.33218 -11.8495 71.4472 -5.73998 
-11.3992 71.5865 -6.18147 -12.3923 71.4313 -5.90586 -11.2396 71.7275 -6.80731 
-10.8245 71.451 -6.59629 -10.7048 71.4925 -7.04449 -11.8035 71.7465 -7.0228 
-12.4876 71.5126 -6.70067 -8.34355 71.8159 -8.17603 -7.94324 71.426 -7.72297 
-7.56547 71.4941 -8.39618 -9.18753 71.8595 -8.0548 -8.78195 71.5192 -7.53724 
-9.77615 71.7339 -8.28816 -9.69978 71.511 -7.59675 -11.2034 71.4548 -7.4392 
-10.2958 71.4057 -7.89889 -12.1277 71.4459 -7.3829 -7.98882 71.7714 -8.83507 
-7.63567 71.4343 -9.17847 -8.85681 71.8475 -8.80914 -9.61932 71.5879 -8.90131 
-10.22 71.4194 -8.49048 -8.3043 71.5135 -9.4941 -9.10184 71.4654 -9.40505 
-9.0926 70.8028 3.86934 -8.93799 70.1665 4.31425 -8.41545 70.571 3.83357 
-10.1003 71.0098 3.92065 -9.98749 70.3462 4.37687 -11.2446 71.0055 4.05327 
-11.0135 70.3549 4.41153 -12.2731 71.0051 4.0622 -12.0456 70.327 4.41769 
-13.2721 71.0161 4.04178 -13.0621 70.3696 4.39355 -14.1127 70.8413 3.96742 
-13.818 70.4969 4.27646 -14.4697 70.1415 4.01428 -16.1237 70.803 3.70116 
-16.0396 70.4636 4.15056 -15.7667 70.5122 4.04975 -16.3094 70.3127 3.97725 
-6.04538 70.8092 2.85108 -6.05057 70.5052 3.35289 -5.4675 70.4895 2.99181 
-7.08979 70.9895 2.88767 -6.72952 70.48 3.47195 -8.27396 71.0014 3.18648 
-7.68879 70.5085 3.5773 -9.18672 71.2076 3.28455 -15.1668 70.6157 3.72404 
-16.0872 71.2193 2.8447 -16.8296 70.3389 3.55334 -16.7852 70.8066 2.86269 
-17.3844 70.1542 2.98401 -5.21804 70.8001 2.1948 -4.87231 70.337 2.55363 
-4.65884 70.3664 1.87938 -6.00703 71.1867 2.10445 -16.0201 71.073 1.80501 
-16.7647 70.5148 1.86469 -17.2425 70.363 2.39893 -5.1923 70.9972 1.14258 
-4.62007 70.35 0.959194 -14.2686 71.1081 0.806157 -15.0364 71.1668 1.05945 
-15.7607 70.8109 0.715755 -16.3522 70.5524 1.13374 -5.08963 70.8666 0.0102493 
-4.62383 70.3725 -0.0326282 -5.6804 71.2073 0.165444 -10.858 71.1803 -0.300983 
-11.7593 70.9789 -0.187007 -12.7009 70.8844 -0.000165041 -13.4808 70.5213 -0.0182524 
-14.113 70.702 0.327179 -14.6382 70.4308 -0.210053 -14.9153 70.7878 0.272159 
-15.5933 70.3482 -0.0708224 -16.0903 70.1825 0.46869 -5.1096 70.8973 -1.04444 
-4.59991 70.4137 -1.03587 -5.81913 71.1601 -0.804852 -9.98668 71.1414 -1.19008 
-10.8583 70.7981 -1.04898 -11.5898 70.5011 -0.835568 -12.3596 70.2487 -0.55928 
-12.9387 70.3195 -0.291548 -15.1432 70.3388 -0.459605 -5.07344 70.8707 -2.0354 
-4.64879 70.2363 -1.94679 -5.94514 71.1668 -1.99538 -8.95952 71.1635 -2.23234 
-9.87294 70.7912 -2.09115 -10.5756 70.5057 -1.82406 -11.1534 70.3777 -1.40261 
-5.0803 70.5661 -2.64116 -5.54969 70.19 -3.10591 -5.7272 70.8547 -2.87214 
-6.69704 71.0391 -2.95936 -7.87866 71.0033 -3.01811 -8.90583 70.7613 -2.945 
-9.56231 70.5137 -2.88272 -10.1517 70.3865 -2.45465 -6.31097 70.3515 -3.40187 
-7.16203 70.4846 -3.46272 -8.12239 70.3136 -3.6088 -9.0815 70.3594 -3.41015 
-12.1839 70.8313 -4.22015 -11.9146 70.4058 -3.65238 -11.4357 70.5271 -4.162 
-13.2027 70.8285 -4.24515 -12.906 70.3138 -3.51012 -13.5796 70.3615 -3.91803 
-5.33054 70.8124 -5.109 -4.90081 70.1807 -4.66486 -4.53665 70.5219 -5.31086 
-6.26058 70.9028 -5.13187 -5.99221 70.3836 -4.61316 -7.20043 70.788 -5.26658 
-6.77275 70.4981 -4.72475 -7.52327 70.2739 -4.82213 -11.1383 70.793 -4.95711 
-10.8605 70.3685 -4.60546 -10.4209 70.4897 -5.20669 -12.0877 71.1252 -5.23227 
-13.046 71.0603 -4.99842 -14.0782 70.3635 -4.38319 -14.0906 70.8841 -5.10804 
-14.6134 70.3918 -4.93437 -5.11254 70.8797 -5.99456 -4.45471 70.5204 -6.25443 
-5.97436 71.024 -5.96728 -6.9942 71.0031 -6.01799 -7.94952 70.5372 -5.36167 
-8.13051 70.8529 -6.05196 -9.29374 70.798 -6.19955 -8.74111 70.4476 -5.57408 
-10.2319 70.8099 -5.84414 -9.66723 70.4165 -5.51655 -11.0567 71.1749 -5.87502 
-13.0721 71.1686 -6.08148 -14.0323 71.0712 -5.99345 -15.1287 70.3729 -5.39626 
-14.9188 70.8703 -6.07547 -15.5976 70.4414 -6.03146 -5.11635 70.8397 -7.02484 
-4.47226 70.5089 -7.29396 -5.96235 70.9906 -6.9769 -6.79787 71.0139 -6.83502 
-7.88153 71.106 -7.00815 -9.04121 71.1255 -6.91539 -10.2581 71.1921 -7.00166 
-13.0163 71.1437 -7.30309 -13.9036 71.0481 -6.85957 -14.7135 70.8715 -7.06672 
-15.5819 70.3769 -6.95778 -5.13215 70.8448 -8.0372 -4.49796 70.5147 -8.31154 
-5.99206 70.9879 -8.00094 -7.03417 71.1066 -7.75961 -10.9049 71.1593 -8.23744 
-12.0276 71.1492 -7.94262 -12.8429 70.8848 -8.24076 -13.892 70.8437 -7.82367 
-14.6654 70.3531 -8.11036 -15.1414 70.3786 -7.64454 -5.16669 70.8237 -8.96877 
-4.65589 70.4717 -9.13501 -6.00669 71.008 -9.03032 -6.99679 71.1312 -8.97208 
-10.0953 71.156 -9.26444 -11.0075 71.0054 -9.03245 -11.8097 70.8503 -8.9651 
-12.6287 70.355 -9.09612 -13.3309 70.5217 -8.60601 -14.0297 70.3718 -8.53749 
-5.1621 70.6246 -9.65344 -5.42413 70.3443 -10.4483 -5.94584 70.9317 -10.0222 
-6.98039 71.0379 -10.0999 -7.94985 71.122 -10.0505 -9.01102 71.1303 -9.98397 
-9.85259 70.8572 -10.2522 -10.8877 70.8192 -9.79237 -11.6397 70.3447 -10.0628 
-12.0804 70.3625 -9.60652 -5.99803 70.7795 -10.8688 -5.72847 70.2348 -11.1017 
-6.74513 70.9052 -10.9569 -7.74949 70.871 -10.9957 -8.85603 70.8026 -10.861 
-9.65494 70.5818 -10.9117 -10.3744 70.5242 -10.6083 -11.0637 70.3565 -10.5028 
-6.32612 70.4029 -11.4004 -7.18045 70.5251 -11.4858 -8.14365 70.3714 -11.6058 
-9.1367 70.4321 -11.4079 -6.09143 70.0056 3.81326 -6.10117 69.514 4.4058 
-5.50648 69.4996 4.01457 -7.25336 70.0098 4.01235 -6.92609 69.4105 4.51392 
-8.07574 70.1743 4.06715 -8.13646 69.5098 4.39898 -9.17535 69.3213 4.49856 
-10.0174 69.4652 4.53583 -11.0236 69.4985 4.54909 -11.8679 69.6354 4.53678 
-12.9132 69.4833 4.40138 -13.8806 69.811 4.28903 -14.3695 69.385 3.91911 
-15.8971 70.2355 4.02041 -5.14228 69.9317 3.22859 -4.83408 69.4358 3.41338 
-4.50147 69.6809 2.61696 -15.0619 69.2823 3.64804 -16.2331 69.6204 3.67039 
-17.1601 69.6157 3.38746 -17.522 69.2766 2.98919 -4.34009 69.6264 1.69628 
-17.0971 69.9547 1.76298 -17.5005 69.4927 2.27032 -4.382 69.4423 0.702115 
-16.541 69.8442 1.09594 -16.9444 69.1255 1.45244 -4.47405 69.7091 -0.183804 
-14.2079 70.2388 -0.295512 -15.7678 69.4681 0.0220885 -16.0284 69.4131 0.589724 
-4.459 69.5536 -1.0357 -12.0437 69.9511 -1.35859 -12.6414 69.539 -0.954938 
-13.1197 69.729 -0.688019 -13.8281 69.8868 -1.00836 -13.3074 69.4543 -1.18047 
-14.7466 69.9311 -1.0805 -15.4553 69.5344 -0.749726 -4.62058 69.2566 -1.87384 
-11.0541 70.0942 -2.24978 -12.1836 69.9653 -2.20665 -12.8643 69.4356 -1.28681 
-13.0905 69.7879 -1.75719 -13.9373 69.808 -2.11951 -14.5675 69.4919 -1.98655 
-15.0853 69.1581 -1.54425 -5.09023 69.6328 -2.58367 -5.66635 69.3733 -2.98824 
-10.054 70.0739 -3.25231 -10.9856 69.9479 -3.04024 -11.8836 70.0783 -3.0052 
-12.9745 69.9886 -2.69494 -13.6367 69.4943 -3.05766 -14.0275 69.1821 -2.57079 
-6.12123 69.4991 -3.3195 -7.05486 69.6127 -3.69492 -7.95588 69.8614 -4.32197 
-7.34191 69.394 -4.05412 -9.14437 70.0135 -4.09158 -10.0349 69.9202 -4.04752 
-10.9543 70.0788 -3.82684 -14.0295 70.002 -3.97347 -13.952 69.5561 -3.62587 
-14.5419 69.4901 -4.00983 -3.26826 69.8338 -5.0925 -2.93841 69.3713 -4.4683 
-2.60772 69.344 -5.0839 -4.02632 70.1172 -4.99062 -3.85 69.6293 -4.48552 
-4.8446 69.5047 -4.36829 -5.79241 69.5927 -4.37528 -6.93234 69.6736 -4.34819 
-8.25738 70.1801 -5.03999 -9.01557 70.0672 -4.95016 -10.0657 70.0895 -4.72033 
-15.061 70.0107 -5.00371 -14.8772 69.7526 -4.5632 -15.4915 69.302 -4.9158 
-3.08652 69.8658 -6.00092 -2.39192 69.2306 -6.19319 -3.83025 70.1756 -5.71711 
-16.1128 70.0027 -6.34252 -15.8992 69.7432 -5.64013 -16.353 69.2983 -6.04748 
-3.08014 69.881 -7.06863 -2.61522 69.4821 -7.25828 -3.81465 70.169 -6.73211 
-16.1209 69.9678 -6.93987 -16.4584 69.291 -6.86052 -3.12492 69.8187 -8.00453 
-2.74617 69.2476 -7.8152 -3.82769 70.1694 -7.7915 -15.0849 70.0113 -8.09729 
-15.5733 69.5122 -8.09465 -16.0947 69.5419 -7.53711 -3.17338 69.445 -8.46294 
-3.4686 69.4462 -9.18214 -3.91304 70.0475 -8.93561 -13.0976 70.1405 -9.046 
-13.6781 69.9592 -9.04431 -14.4498 69.7527 -8.89039 -15.0421 69.5272 -8.59865 
-3.98464 69.7867 -9.85113 -3.68125 69.2777 -9.86811 -4.65998 70.0935 -9.92988 
-12.0147 70.0388 -10.0535 -12.4952 69.5178 -10.0378 -13.2356 69.452 -9.55511 
-14.2122 69.1944 -9.38494 -4.33647 69.4279 -10.3435 -4.96524 69.5734 -10.5424 
-5.45519 69.3416 -11.0018 -9.85595 70.2432 -11.3086 -10.7162 69.9661 -11.2254 
-11.5333 69.5052 -11.0398 -12.015 69.5392 -10.5481 -5.98291 69.6554 -11.4485 
[...]
CELL_DATA 3132
SCALARS scalars float
LOOKUP_TABLE default
1032 1032 1032 1032 1032 1032 1032 1032 1032 
1032 1032 1032 1032 1032 1032 1032 1032 1032 
1032 1032 1032 1032 1032 1032 1032 1032 1032 
1032 1032 1032 1032 1032 1032 1032 1032 1032 
1032 1032 1032 1032 1032 1032 1032 1032 1032 
1032 1032 1032 1032 1032 1032 1032 1032 1032 
1032 1032 1032 1032 1032 1032 1032 1032 1032 
1032 1032 1032 1032 1032 1032 1032 1032 1032 
1032 1032 1032 1032 1032 1032 1032 1032 1032 
1032 1032 1032 1032 1032 1032 1032 1032 1032 
1032 1032 1032 1032 1032 1032 1032 1032 1032 
1032 1032 1032 1032 1032 1032 1032 1032 1032 
1032 1032 1032 1032 1032 1032 1032 1032 1032 
1032 1032 1032 1032 1032 1032 1032 1032 1032 
1032 1032 1032 1032 1032 1032 1032 1032 1032 
1032 1032 1032 1032 1032 1032 1032 1032 1032 
1032 1032 1032 1032 1032 1032 1032 1032 1032 
1032 1032 1032 1032 1032 1032 1032 1032 1032 
1032 1032 1032 1032 1032 1032 1032 1032 1032 
1032 1032 1032 1032 1032 1032 1032 1032 1032 
1032 1032 1032 1032 1032 1032 1032 1032 1032 
1032 1032 1032 1032 1032 1032 1032 1032 1032 
1032 1032 1032 1032 1032 1032 1032 1032 1032 
1032 1032 1032 1032 1032 1032 1032 1032 1032 
1032 1032 1032 1032 1032 1032 1032 1032 1032 
1032 1032 1032 1032 1032 1032 1032 1032 1032 
1032 1032 1032 1032 1032 1032 1032 1032 1032 
1032 1032 1032 1032 1032 1032 1032 1032 1032 
1032 1032 1032 1032 1032 1032 1032 1032 1032 
1032 1032 1032 1032 1032 1032 1032 1032 1032 
1032 1032 1032 1032 1032 1032 1032 1032 1032 
1032 1032 1032 1032 1032 1032 1032 1032 1032 
1032 1032 1032 1032 1032 1032 1032 1032 1032 
1032 1032 1032 1032 1032 1032 1032 1032 1032 
1032 1032 1032 1032 1032 1032 1032 1032 1032 
1032 1032 1032 1032 1032 1032 1032 1032 1032 
1032 1032 1032 1032 1032 1032 1032 1032 1032 
1032 1032 1032 1032 1032 1032 1032 1032 1032 
1032 1032 1032 1032 1032 1032 1032 1032 1032 
1032 1032 1032 1032 1032 1032 1032 1032 1032 
1032 1032 1032 1032 1032 1032 1032 1032 1032 
1032 1032 1032 1032 1032 1032 1032 1032 1032 
1032 1032 1032 1032 1032 1032 1032 1032 1032 
1032 1032 1032 1032 1032 1032 1032 1032 1032 
1032 1032 1032 1032 1032 1032 1032 1032 1032 
1032 1032 1032 1032 1032 1032 1032 1032 1032 
1032 1032 1032 1032 1032 1032 1032 1032 1032 
1032 1032 1032 1032 1032 1032 1032 1032 1032 
1032 1032 1032 1032 1032 1032 1032 1032 1032 
1032 1032 1032 1032 1032 1032 1032 1032 1032 
1032 1032 1032 1032 1032 1032 1032 1032 1032 
1032 1032 1032 1032 1032 1032 1032 1032 1032 
1032 1032 1032 1032 1032 1032 1032 1032 1032 
1032 1032 1032 1032 1032 1032 1032 1032 1032 
1032 1032 1032 1032 1032 1032 1032 1032 1032 
1032 1032 1032 1032 1032 1032 1032 1032 1032 
1032 1032 1032 1032 1032 1032 1032 1032 1032 
1032 1032 1032 1032 1032 1032 1032 1032 1032 
1032 1032 1032 1032 1032 1032 1032 1032 1032 
1032 1032 1032 1032 1032 1032 1032 1032 1032 
1032 1032 1032 1032 1032 1032 1032 1032 1032 
1032 1032 1032 1032 1032 1032 1032 1032 1032 
1032 1032 1032 1032 1032 1032 1032 1032 1032 
1032 1032 1032 1032 1032 1032 1032 1032 1032 
1032 1032 1032 1032 1032 1032 1032 1032 1032 
1032 1032 1032 1032 1032 1032 1032 1032 1032 
1032 1032 1032 1032 1032 1032 1032 1032 1032 
1032 1032 1032 1032 1032 1032 1032 1032 1032 
1032 1032 1032 1032 1032 1032 1032 1032 1032 
1032 1032 1032 1032 1032 1032 1032 1032 1032 
1032 1032 1032 1032 1032 1032 1032 1032 1032 
1032 1032 1032 1032 1032 1032 1032 1032 1032 
1032 1032 1032 1032 1032 1032 1032 1032 1032 
1032 1032 1032 1032 1032 1032 1032 1032 1032 
1032 1032 1032 1032 1032 1032 1032 1032 1032 
1032 1032 1032 1032 1032 1032 1032 1032 1032 
1032 1032 1032 1032 1032 1032 1032 1032 1032 
1032 1032 1032 1032 1032 1032 1032 1032 1032 
1032 1032 1032 1032 1032 1032 1032 1032 1032 
1032 1032 1032 1032 1032 1032 1032 1032 1032 
1032 1032 1032 1032 1032 1032 1032 1032 1032 
1032 1032 1032 1032 1032 1032 1032 1032 1032 
1032 1032 1032 1032 1032 1032 1032 1032 1032 
1032 1032 1032 1032 1032 1032 1032 1032 1032 
1032 1032 1032 1032 1032 1032 1032 1032 1032 
1032 1032 1032 1032 1032 1032 1032 1032 1032 
1032 1032 1032 1032 1032 1032 1032 1032 1032 
1032 1032 1032 1032 1032 1032 1032 1032 1032 
1032 1032 1032 1032 1032 1032 1032 1032 1032 
1032 1032 1032 1032 1032 1032 1032 1032 1032 
1032 1032 1032 1032 1032 1032 1032 1032 1032 
1032 1032 1032 1032 1032 1032 1032 1032 1032 
1032 1032 1032 1032 1032 1032 1032 1032 1032 
1032 1032 1032 1032 1032 1032 1032 1032 1032 
1032 1032 1032 1032 1032 1032 1032 1032 1032 
1032 1032 1032 1032 1032 1032 1032 1032 1032 
1032 1032 1032 1032 1032 1032 1032 1032 1032 
1032 1032 1032 1032 1032 1032 1032 1032 1032 
1032 1032 1032 1032 1032 1032 1032 1032 1032 
1032 1032 1032 1032 1032 1032 1032 1032 1032 
1032 1032 1032 1032 1032 1032 1032 1032 1032 
1032 1032 1032 1032 1032 1032 1032 1032 1032 
1032 1032 1032 1032 1032 1032 1032 1032 1032 
1032 1032 1032 1032 1032 1032 1032 1032 1032 
1032 1032 1032 1032 1032 1032 1032 1032 1032 
1032 1032 1032 1032 1032 1032 1032 1032 1032 
1032 1032 1032 1032 1032 1032 1032 1032 1032 
1032 1032 1032 1032 1032 1032 1032 1032 1032 
1032 1032 1032 1032 1032 1032 1032 1032 1032 
1032 1032 1032 1032 1032 1032 1032 1032 1032 
1032 1032 1032 1032 1032 1032 1032 1032 1032 
1032 1032 1032 1032 1032 1032 1032 1032 1032 
1032 1032 1032 1032 1032 1032 1032 1032 1032 
1032 1032 1032 1032 1032 1032 1032 1032 1032 
1032 1032 1032 1032 1032 1032 1032 1032 1032 
1032 1032 1032 1032 1032 1032 1032 1032 1032 
1032 1032 1032 1032 1032 1032 1032 1032 1032 
1032 1032 1032 1032 1032 1032 1032 1032 1032 
1032 1032 1032 1032 1032 1032 1032 1032 1032 
1032 1032 1032 1032 1032 1032 1032 1032 1032 
1032 1032 1032 1032 1032 1032 1032 1032 1032 
1032 1032 1032 1032 1032 1032 1032 1032 1032 
1032 1032 1032 1032 1032 1032 1032 1032 1032 
1032 1032 1032 1032 1032 1032 1032 1032 1032 
1032 1032 1032 1032 1032 1032 1032 1032 1032 
1032 1032 1032 1032 1032 1032 1032 1032 1032 
1032 1032 1032 1032 1032 1032 1032 1032 1032 
1032 1032 1032 1032 1032 1032 1032 1032 1032 
1032 1032 1032 1032 1032 1032 1032 1032 1032 
1032 1032 1032 1032 1032 1032 1032 1032 1032 
1032 1032 1032 1032 1032 1032 1032 1032 1032 
1032 1032 1032 1032 1032 1032 1032 1032 1032 
1032 1032 1032 1032 1032 1032 1032 1032 1032 
1032 1032 1032 1032 1032 1032 1032 1032 1032 
1032 1032 1032 1032 1032 1032 1032 1032 1032 
1032 1032 1032 1032 1032 1032 1032 1032 1032 
1032 1032 1032 1032 1032 1032 1032 1032 1032 
1032 1032 1032 1032 1032 1032 1032 1032 1032 
1032 1032 1032 1032 1032 1032 1032 1032 1032 
1032 1032 1032 1032 1032 1032 1032 1032 1032 
1032 1032 1032 1032 1032 1032 1032 1032 1032 
1032 1032 1032 1032 1032 1032 1032 1032 1032 
1032 1032 1032 1032 1032 1032 1032 1032 1032 
1032 1032 1032 1032 1032 1032 1032 1032 1032 
1032 1032 1032 1032 1032 1032 1032 1032 1032 
1032 1032 1032 1032 1032 1032 1032 1032 1032 
1032 1032 1032 1032 1032 1032 1032 1032 1032 
1032 1032 1032 1032 1032 1032 1032 1032 1032 
1032 1032 1032 1032 1032 1032 1032 1032 1032 
1032 1032 1032 1032 1032 1032 1032 1032 1032 
1032 1032 1032 1032 1032 1032 1032 1032 1032 
1032 1032 1032 1032 1032 1032 1032 1032 1032 
1032 1032 1032 1032 1032 1032 1032 1032 1032 
1032 1032 1032 1032 1032 1032 1032 1032 1032 
1032 1032 1032 1032 1032 1032 1032 1032 1032 
1032 1032 1032 1032 1032 1032 1032 1032 1032 
1032 1032 1032 1032 1032 1032 1032 1032 1032 
1032 1032 1032 1032 1032 1032 1032 1032 1032 
1032 1032 1032 1032 1032 1032 1032 1032 1032 
1032 1032 1032 1032 1032 1032 1032 1032 1032 
1032 1032 1032 1032 1032 1032 1032 1032 1032 
1032 1032 1032 1032 1032 1032 1032 1032 1032 
1032 1032 1032 1032 1032 1032 1032 1032 1032 
1032 1032 1032 1032 1032 1032 1032 1032 1032 
1032 1032 1032 1032 1032 1032 1032 1032 1032 
1032 1032 1032 1032 1032 1032 1032 1032 1032 
1032 1032 1032 1032 1032 1032 1032 1032 1032 
1032 1032 1032 1032 1032 1032 1032 1032 1032 
1032 1032 1032 1032 1032 1032 1032 1032 1032 
1032 1032 1032 1032 1032 1032 1032 1032 1032 
1032 1032 1032 1032 1032 1032 1032 1032 1032 
1032 1032 1032 1032 1032 1032 1032 1032 1032 
1032 1032 1032 1032 1032 1032 1032 1032 1032 
1032 1032 1032 1032 1032 1032 1032 1032 1032 
1032 1032 1032 1032 1032 1032 1032 1032 1032 
1032 1032 1032 1032 1032 1032 1032 1032 1032 
1032 1032 1032 1032 1032 1032 1032 1032 1032 
1032 1032 1032 1032 1032 1032 1032 1032 1032 
1032 1032 1032 1032 1032 1032 1032 1032 1032 
1032 1032 1032 1032 1032 1032 1032 1032 1032 
1032 1032 1032 1032 1032 1032 1032 1032 1032 
1032 1032 1032 1032 1032 1032 1032 1032 1032 
1032 1032 1032 1032 1032 1032 1032 1032 1032 
1032 1032 1032 1032 1032 1032 1032 1032 1032 
1032 1032 1032 1032 1032 1032 1032 1032 1032 
1032 1032 1032 1032 1032 1032 1032 1032 1032 
1032 1032 1032 1032 1032 1032 1032 1032 1032 
1032 1032 1032 1032 1032 1032 1032 1032 1032 
1032 1032 1032 1032 1032 1032 1032 1032 1032 
1032 1032 1032 1032 1032 1032 1032 1032 1032 
1032 1032 1032 1032 1032 1032 1032 1032 1032 
1032 1032 1032 1032 1032 1032 1032 1032 1032 
1032 1032 1032 1032 1032 1032 1032 1032 1032 
1032 1032 1032 1032 1032 1032 1032 1032 1032 
1032 1032 1032 1032 1032 1032 1032 1032 1032 
1032 1032 1032 1032 1032 1032 1032 1032 1032 
1032 1032 1032 1032 1032 1032 1032 1032 1032 
1032 1032 1032 1032 1032 1032 1032 1032 1032 
1032 1032 1032 1032 1032 1032 1032 1032 1032 
1032 1032 1032 1032 1032 1032 1032 1032 1032 
1032 1032 1032 1032 1032 1032 1032 1032 1032 
1032 1032 1032 1032 1032 1032 1032 1032 1032 
1032 1032 1032 1032 1032 1032 1032 1032 1032 
1032 1032 1032 1032 1032 1032 1032 1032 1032 
1032 1032 1032 1032 1032 1032 1032 1032 1032 
1032 1032 1032 1032 1032 1032 1032 1032 1032 
1032 1032 1032 1032 1032 1032 1032 1032 1032 
1032 1032 1032 1032 1032 1032 1032 1032 1032 
1032 1032 1032 1032 1032 1032 1032 1032 1032 
1032 1032 1032 1032 1032 1032 1032 1032 1032 
1032 1032 1032 1032 1032 1032 1032 1032 1032 
1032 1032 1032 1032 1032 1032 1032 1032 1032 
1032 1032 1032 1032 1032 1032 1032 1032 1032 
1032 1032 1032 1032 1032 1032 1032 1032 1032 
1032 1032 1032 1032 1032 1032 1032 1032 1032 
1032 1032 1032 1032 1032 1032 1032 1032 1032 
1032 1032 1032 1032 1032 1032 1032 1032 1032 
1032 1032 1032 1032 1032 1032 1032 1032 1032 
1032 1032 1032 1032 1032 1032 1032 1032 1032 
1032 1032 1032 1032 1032 1032 1032 1032 1032 
1032 1032 1032 1032 1032 1032 1032 1032 1032 
1032 1032 1032 1032 1032 1032 1032 1032 1032 
1032 1032 1032 1032 1032 1032 1032 1032 1032 
1032 1032 1032 1032 1032 1032 1032 1032 1032 
1032 1032 1032 1032 1032 1032 1032 1032 1032 
1032 1032 1032 1032 1032 1032 1032 1032 1032 
1032 1032 1032 1032 1032 1032 1032 1032 1032 
1032 1032 1032 1032 1032 1032 1032 1032 1032 
1032 1032 1032 1032 1032 1032 1032 1032 1032 
1032 1032 1032 1032 1032 1032 1032 1032 1032 
1032 1032 1032 1032 1032 1032 1032 1032 1032 
1032 1032 1032 1032 1032 1032 1032 1032 1032 
1032 1032 1032 1032 1032 1032 1032 1032 1032 
1032 1032 1032 1032 1032 1032 1032 1032 1032 
1032 1032 1032 1032 1032 1032 1032 1032 1032 
1032 1032 1032 1032 1032 1032 1032 1032 1032 
1032 1032 1032 1032 1032 1032 1032 1032 1032 
1032 1032 1032 1032 1032 1032 1032 1032 1032 
1032 1032 1032 1032 1032 1032 1032 1032 1032 
1032 1032 1032 1032 1032 1032 1032 1032 1032 
1032 1032 1032 1032 1032 1032 1032 1032 1032 
1032 1032 1032 1032 1032 1032 1032 1032 1032 
1032 1032 1032 1032 1032 1032 1032 1032 1032 
1032 1032 1032 1032 1032 1032 1032 1032 1032 
1032 1032 1032 1032 1032 1032 1032 1032 1032 
1032 1032 1032 1032 1032 1032 1032 1032 1032 
1032 1032 1032 1032 1032 1032 1032 1032 1032 
1032 1032 1032 1032 1032 1032 1032 1032 1032 
1032 1032 1032 1032 1032 1032 1032 1032 1032 
1032 1032 1032 1032 1032 1032 1032 1032 1032 
1032 1032 1032 1032 1032 1032 1032 1032 1032 
1032 1032 1032 1032 1032 1032 1032 1032 1032 
1032 1032 1032 1032 1032 1032 1032 1032 1032 
1032 1032 1032 1032 1032 1032 1032 1032 1032 
1032 1032 1032 1032 1032 1032 1032 1032 1032 
1032 1032 1032 1032 1032 1032 1032 1032 1032 
1032 1032 1032 1032 1032 1032 1032 1032 1032 
1032 1032 1032 1032 1032 1032 1032 1032 1032 
1032 1032 1032 1032 1032 1032 1032 1032 1032 
1032 1032 1032 1032 1032 1032 1032 1032 1032 
1032 1032 1032 1032 1032 1032 1032 1032 1032 
1032 1032 1032 1032 1032 1032 1032 1032 1032 
1032 1032 1032 1032 1032 1032 1032 1032 1032 
1032 1032 1032 1032 1032 1032 1032 1032 1032 
1032 1032 1032 1032 1032 1032 1032 1032 1032 
1032 1032 1032 1032 1032 1032 1032 1032 1032 
1032 1032 1032 1032 1032 1032 1032 1032 1032 
1032 1032 1032 1032 1032 1032 1032 1032 1032 
1032 1032 1032 1032 1032 1032 1032 1032 1032 
1032 1032 1032 1032 1032 1032 1032 1032 1032 
1032 1032 1032 1032 1032 1032 1032 1032 1032 
1032 1032 1032 1032 1032 1032 1032 1032 1032 
1032 1032 1032 1032 1032 1032 1032 1032 1032 
1032 1032 1032 1032 1032 1032 1032 1032 1032 
1032 1032 1032 1032 1032 1032 1032 1032 1032 
1032 1032 1032 1032 1032 1032 1032 1032 1032 
1032 1032 1032 1032 1032 1032 1032 1032 1032 
1032 1032 1032 1032 1032 1032 1032 1032 1032 
1032 1032 1032 1032 1032 1032 1032 1032 1032 
1032 1032 1032 1032 1032 1032 1032 1032 1032 
1032 1032 1032 1032 1032 1032 1032 1032 1032 
1032 1032 1032 1032 1032 1032 1032 1032 1032 
1032 1032 1032 1032 1032 1032 1032 1032 1032 
1032 1032 1032 1032 1032 1032 1032 1032 1032 
1032 1032 1032 1032 1032 1032 1032 1032 1032 
1032 1032 1032 1032 1032 1032 1032 1032 1032 
1032 1032 1032 1032 1032 1032 1032 1032 1032 
1032 1032 1032 1032 1032 1032 1032 1032 1032 
1032 1032 1032 1032 1032 1032 1032 1032 1032 
1032 1032 1032 1032 1032 1032 1032 1032 1032 
1032 1032 1032 1032 1032 1032 1032 1032 1032 
1032 1032 1032 1032 1032 1032 1032 1032 1032 
1032 1032 1032 1032 1032 1032 1032 1032 1032 
1032 1032 1032 1032 1032 1032 1032 1032 1032 
1032 1032 1032 1032 1032 1032 1032 1032 1032 
1032 1032 1032 1032 1032 1032 1032 1032 1032 
1032 1032 1032 1032 1032 1032 1032 1032 1032 
1032 1032 1032 1032 1032 1032 1032 1032 1032 
1032 1032 1032 1032 1032 1032 1032 1032 1032 
1032 1032 1032 1032 1032 1032 1032 1032 1032 
1032 1032 1032 1032 1032 1032 1032 1032 1032 
1032 1032 1032 1032 1032 1032 1032 1032 1032 
1032 1032 1032 1032 1032 1032 1032 1032 1032 
1032 1032 1032 1032 1032 1032 1032 1032 1032 
1032 1032 1032 1032 1032 1032 1032 1032 1032 
1032 1032 1032 1032 1032 1032 1032 1032 1032 
1032 1032 1032 1032 1032 1032 1032 1032 1032 
1032 1032 1032 1032 1032 1032 1032 1032 1032 
1032 1032 1032 1032 1032 1032 1032 1032 1032 
1032 1032 1032 1032 1032 1032 1032 1032 1032 
1032 1032 1032 1032 1032 1032 1032 1032 1032 
1032 1032 1032 1032 1032 1032 1032 1032 1032 
1032 1032 1032 1032 1032 1032 1032 1032 1032 
1032 1032 1032 1032 1032 1032 1032 1032 1032 
1032 1032 1032 1032 1032 1032 1032 1032 1032 
1032 1032 1032 1032 1032 1032 1032 1032 1032 
1032 1032 1032 1032 1032 1032 1032 1032 1032 
1032 1032 1032 1032 1032 1032 1032 1032 1032 
1032 1032 1032 1032 1032 1032 1032 1032 1032 
1032 1032 1032 1032 1032 1032 1032 1032 1032 
1032 1032 1032 1032 1032 1032 1032 1032 1032 
1032 1032 1032 1032 1032 1032 1032 1032 1032 
1032 1032 1032 1032 1032 1032 1032 1032 1032 
1032 1032 1032 1032 1032 1032 1032 1032 1032 
1032 1032 1032 1032 1032 1032 1032 1032 1032 
1032 1032 1032 1032 1032 1032 1032 1032 1032 
1032 1032 1032 1032 1032 1032 1032 1032 1032 
1032 1032 1032 1032 1032 1032 1032 1032 1032 
1032 1032 1032 1032 1032 1032 1032 1032 1032 
1032 1032 1032 1032 1032 1032 1032 1032 1032 
1032 1032 1032 1032 1032 1032 1032 1032 1032 
1032 1032 1032 1032 1032 1032 1032 1032 1032 
1032 1032 1032 1032 1032 1032 1032 1032 1032 
1032 1032 1032 1032 1032 1032 1032 1032 1032 
1032 1032 1032 1032 1032 1032 1032 1032 1032 
1032 1032 1032 1032 1032 1032 1032 1032 1032 
1032 1032 1032 1032 1032 1032 1032 1032 1032 
1032 1032 1032 1032 1032 1032 1032 1032 1032 
1032 1032 1032 1032 1032 1032 1032 1032 1032 
1032 1032 1032 1032 1032 1032 1032 1032 1032 
1032 1032 1032 1032 1032 1032 1032 1032 1032 
1032 1032 1032 1032 1032 1032 1032 1032 1032 
1032 1032 1032 1032 1032 1032 1032 1032 1032 
1032 1032 1032 1032 1032 1032 1032 1032 1032 
1032 1032 1032 1032 1032 1032 1032 1032 1032 
1032 1032 1032 1032 1032 1032 1032 1032 1032 
1032 1032 1032 1032 1032 1032 1032 1032 1032 
1032 1032 1032 1032 1032 1032 1032 1032 1032 

