# vtk DataFile Version 4.0
vtk output
ASCII
DATASET POLYDATA
POINTS 21676 float
34.0609 -35.1765 38.6967 34.2517 -35.7039 39.3258 34.5927 -35.3295 38.9316 
33.7145 -35.6817 39.0728 34.9256 -35.057 38.0857 35.0853 -35.5502 38.6644 
35.56 -35.6937 37.9065 34.2259 -35.085 37.7589 33.4391 -35.7261 38.0999 
35.8164 -35.1723 37.2673 36.0249 -35.605 37.1895 36.1987 -35.3906 36.9437 
35.126 -35.085 37.1129 34.3956 -35.5923 36.8495 33.868 -35.5499 37.3639 
35.8642 -35.3118 36.7738 35.2154 -35.6946 36.3914 34.8315 -35.8594 39.1722 
34.6435 -36.5337 39.3922 35.231 -36.2252 38.7834 33.9783 -36.2291 39.498 
33.4556 -36.2777 39.0457 35.6375 -36.6655 38.0221 33.0205 -36.2835 38.3918 
32.9377 -36.186 37.9272 32.7174 -36.707 38.2174 35.8901 -35.787 36.7028 
35.7556 -36.477 36.9414 33.9407 -35.9333 36.9308 33.5791 -36.2377 37.1488 
32.9901 -36.641 37.5511 35.3484 -36.5188 36.048 35.0047 -36.1888 35.8781 
34.6258 -36.2855 36.0637 34.0191 -36.6366 36.5196 34.8867 -36.7381 35.689 
33.847 -37.0478 39.7906 33.8575 -37.8519 40.3151 34.3112 -37.6325 39.9044 
32.958 -37.2367 39.8163 33.0748 -37.6311 40.3881 32.4459 -37.6368 40.0386 
35.171 -37.0279 38.8102 34.6754 -37.4791 39.3505 33.0348 -36.8204 39.0702 
32.4256 -37.3569 39.0893 36.1404 -37.0785 37.736 35.8556 -37.3929 38.3194 
36.5464 -37.4008 37.7898 35.236 -37.6176 38.7895 32.428 -37.3389 38.043 
36.7259 -37.2727 37.1987 37.185 -37.6835 37.4321 37.2317 -37.7486 36.665 
36.1349 -36.9971 37.1347 33.449 -37.2417 36.9266 32.7681 -37.7503 37.4041 
36.6645 -37.4982 36.5045 36.0433 -37.3151 36.4341 35.6333 -37.4482 35.9542 
34.4718 -37.2883 35.8812 33.9704 -37.8033 36.3953 35.0621 -37.6526 35.5971 
39.7152 -38.1611 41.88 40.1315 -38.5356 42.3398 40.462 -38.4919 41.6854 
38.7772 -38.0603 41.8843 39.2927 -38.4399 42.5074 37.8343 -38.1256 41.7287 
38.1268 -38.6318 42.4995 37.4447 -38.6067 42.0657 39.9049 -38.1792 41.0795 
40.4023 -38.5423 40.931 39.0443 -37.9508 41.0468 38.0408 -37.9104 40.9839 
36.9644 -38.6097 41.5933 36.9763 -38.1051 40.8476 36.4541 -38.5922 41.0673 
39.9107 -38.3951 40.4052 39.6084 -38.4586 39.6373 39.0856 -38.0936 40.0255 
38.0495 -37.9559 39.9825 37.0182 -37.9643 39.9217 35.9601 -38.622 40.5646 
35.9413 -38.1593 39.799 35.4058 -38.6578 39.9809 33.7292 -38.6603 40.3667 
34.4127 -38.333 39.76 33.1587 -38.2447 40.6591 31.909 -38.0359 39.6761 
32.2905 -38.2799 40.526 31.6146 -38.746 40.2422 38.852 -38.1976 38.9889 
39.4151 -38.4846 39.0404 37.9676 -37.998 38.9666 37.1297 -37.9755 39.0973 
36.0652 -37.8948 38.9306 35.0026 -38.5598 39.5869 35.1352 -38.0204 39.2079 
31.9096 -37.9398 38.6506 31.5342 -38.6378 39.2312 39.0815 -38.5846 38.4606 
38.4784 -38.5096 37.9472 37.9783 -38.1356 37.995 36.899 -37.8069 38.2637 
32.0765 -37.9638 37.8891 31.6358 -38.6102 38.2502 38.247 -38.6917 37.521 
37.678 -38.3164 36.9303 33.5445 -38.2051 36.9284 33.0206 -38.7618 37.3216 
32.0796 -38.5716 37.6115 37.0201 -37.9951 36.0512 37.4223 -38.313 36.1593 
36.3249 -37.9333 35.8825 34.5595 -38.2495 35.8888 34.1665 -38.5344 36.4424 
36.9708 -38.6327 35.4896 35.6925 -38.4927 35.4264 35.0541 -38.446 35.5797 
41.6926 -39.167 44.8606 42.1217 -39.5274 45.3795 42.46 -39.4445 44.7129 
40.8038 -39.1906 44.7396 41.3596 -39.4853 45.4397 40.5906 -39.5332 45.157 
41.9089 -39.0771 44.0079 42.5636 -39.6125 43.7007 40.9991 -38.961 44.0018 
40.0609 -39.4005 44.6416 39.8667 -39.0679 43.951 38.7814 -39.159 43.6931 
39.0817 -39.6584 44.4571 38.3968 -39.6303 44.0231 41.9103 -39.1576 43.0828 
42.3461 -39.7459 42.7669 41.2168 -38.936 43.222 40.1665 -38.8124 43.0259 
39.0227 -38.7953 43.111 37.9228 -39.6329 43.5821 38.2356 -39.0189 43.1294 
37.4978 -39.4818 42.9926 41.8892 -39.3986 42.4125 41.6182 -39.6317 41.6418 
41.0561 -38.9593 42.2956 37.0109 -38.9545 42.0002 36.9903 -39.4794 42.4843 
36.4937 -39.4695 41.9761 40.9512 -38.9777 41.0861 41.392 -39.5101 40.7763 
36.0102 -38.9429 40.9838 35.9951 -39.4855 41.479 35.5 -39.4533 40.9675 
32.8748 -39.0278 40.9012 32.8753 -39.8378 41.3258 33.3015 -39.6282 40.9012 
31.9509 -38.9616 40.9031 32.187 -39.492 41.2967 31.6311 -39.5471 40.9254 
40.9298 -39.168 40.0589 41.3388 -39.8051 40.0914 40.3337 -38.7636 40.1835 
34.8434 -39.0976 39.8278 34.987 -39.5122 40.4235 34.0369 -39.0183 39.9459 
34.4169 -39.6715 39.9682 33.6837 -39.4694 40.3198 31.4135 -39.5132 40.0274 
40.8998 -39.486 39.4456 40.4878 -39.8232 38.7812 40.1062 -38.9683 39.1918 
34.3045 -39.2432 39.7561 31.4254 -39.5088 38.9551 39.7704 -39.2989 38.3849 
38.9912 -38.9998 37.9567 39.5021 -39.481 37.971 31.5755 -39.501 38.0468 
39.0178 -39.5172 37.4619 38.1651 -39.0056 36.9385 38.5747 -39.5173 36.6333 
34.779 -39.2368 36.98 35.4783 -39.7416 36.8424 34.7906 -39.7208 37.3249 
33.8756 -39.4949 37.3467 34.0924 -38.8563 36.9131 32.7795 -39.6578 37.4208 
32.0685 -39.5138 37.5471 37.8863 -38.9732 36.1575 38.3989 -39.4928 36.0455 
34.9734 -38.9948 36.0735 35.3679 -39.6388 35.925 38.023 -39.4671 35.4283 
37.1049 -39.1419 34.9237 37.603 -39.5918 34.8196 36.2671 -39.096 34.8694 
35.5447 -39.5264 35.2213 36.7889 -39.6977 34.5347 35.9459 -39.7395 34.6154 
42.6963 -40.1473 47.8682 43.1211 -40.5024 48.3338 43.4606 -40.451 47.6594 
41.8369 -40.1339 47.7518 42.1337 -40.6237 48.5009 41.4593 -40.5854 48.0739 
42.9011 -40.0941 47.0185 43.5436 -40.4598 46.703 42.0243 -39.9288 47.0211 
40.9786 -40.609 47.5968 40.9709 -40.1149 46.8637 40.451 -40.626 47.0725 
43.0282 -40.1263 46.1731 43.5487 -40.4546 45.69 42.1713 -39.8403 46.0741 
40.9815 -39.8183 45.9397 39.9479 -40.6411 46.5754 39.9208 -40.1353 45.8441 
39.3889 -40.6244 46.0253 42.8747 -39.9506 45.2985 43.5627 -40.611 44.6613 
39.9396 -39.7513 45.1123 38.9178 -40.65 45.5561 39.2148 -40.0484 45.1098 
38.4796 -40.4638 44.9579 43.0361 -40.0025 44.3119 43.3581 -40.7236 43.7701 
37.9764 -39.9566 43.9933 37.9859 -40.4759 44.4655 37.4747 -40.4724 43.9855 
42.9955 -40.2762 43.5513 42.7115 -40.5433 42.8388 36.9426 -40.0187 42.9897 
36.9566 -40.5371 43.4962 36.4438 -40.5225 42.987 42.1065 -39.9167 42.132 
42.3151 -40.5842 42.128 35.9738 -40.0303 41.9817 36.141 -40.2787 42.4213 
35.5545 -40.7297 42.0884 41.9647 -40.4024 41.6495 41.6466 -40.4019 40.9596 
35.0043 -39.9962 40.952 35.1884 -40.2942 41.3404 34.6076 -40.6569 40.8684 
33.0389 -40.5723 41.6216 33.5055 -40.424 40.8451 32.0368 -40.495 41.6181 
31.3699 -40.4081 40.8663 41.3725 -40.7864 40.1487 33.9664 -39.9255 40.1011 
34.0591 -40.4042 40.327 31.3022 -40.5011 39.8242 41.0434 -40.2226 39.4519 
40.6946 -40.6558 38.9545 36.7889 -40.152 38.7154 37.4791 -40.5912 38.6632 
36.9767 -40.6835 39.3539 36.4392 -40.5675 39.0868 31.4189 -40.3497 38.753 
39.9228 -39.8809 38.0373 40.3481 -40.7004 38.2254 36.945 -40.0844 38.0762 
37.3047 -40.6572 38.0131 35.9748 -40.5855 38.6268 36.0862 -40.0148 37.8991 
35.4757 -40.5752 38.0656 31.5678 -40.5089 38.0461 39.7533 -40.3659 37.4964 
39.1691 -40.014 36.9567 39.5334 -40.6428 36.8328 36.8812 -40.4333 37.5584 
36.3128 -40.0738 37.292 36.429 -40.8195 36.8317 35.0521 -40.345 37.5772 
34.0211 -40.4757 37.4568 32.9657 -40.5256 37.4227 32.0731 -40.548 37.5552 
38.8895 -40.0113 36.1839 39.3169 -40.8199 36.0839 35.9153 -40.333 36.5712 
35.6138 -40.269 35.7602 38.7701 -40.3595 35.4532 38.1955 -40.0182 34.9886 
38.5023 -40.7686 34.9119 35.6787 -40.2591 34.8925 37.7347 -40.2606 34.5948 
36.899 -40.6864 34.3426 36.1499 -40.2781 34.5276 44.7869 -41.1159 49.8376 
45.1192 -41.5661 50.4959 45.4051 -41.5964 49.9191 43.788 -41.0355 49.8237 
44.3173 -41.4167 50.4986 42.7962 -41.1308 49.7111 43.1101 -41.6253 50.4788 
42.4164 -41.6106 50.0482 44.9453 -41.1379 49.0657 45.2997 -41.7283 49.2425 
44.2156 -40.9048 49.1373 43.1666 -40.7909 48.9911 41.9372 -41.6195 49.5868 
42.2556 -41.004 49.1445 41.5148 -41.4566 48.9932 44.8702 -41.3968 48.593 
44.5242 -41.6728 48.0191 44.0709 -40.9247 48.2967 41.0324 -40.927 47.9944 
41.0129 -41.4559 48.4754 40.519 -41.4692 47.9756 44.0278 -40.9684 47.2594 
44.3981 -41.6436 46.9463 39.9981 -40.9956 46.9924 40.0101 -41.4922 47.4903 
39.4908 -41.4725 46.9647 44.0471 -40.9512 46.2178 44.4284 -41.6302 45.9325 
38.9772 -40.9745 45.9567 39.1709 -41.219 46.3902 38.5881 -41.6916 46.0562 
44.0737 -41.0206 45.231 44.3723 -41.809 45.0581 37.9758 -40.9707 44.9441 
38.1736 -41.2869 45.3168 37.6001 -41.6586 44.9032 44.0162 -41.3637 44.5693 
43.6945 -41.465 44.0198 36.9801 -41.0374 43.9826 37.1841 -41.3342 44.3485 
36.5765 -41.7167 43.9495 43.1167 -40.8842 43.1126 43.3678 -41.6758 43.1683 
35.8824 -40.9842 42.8225 36.1561 -41.3517 43.3544 35.6515 -41.6332 42.8705 
42.9624 -41.4241 42.6237 42.4973 -41.6751 42.0897 38.7427 -41.1571 41.7223 
39.3037 -41.4174 41.7616 39.0248 -41.7501 42.4394 38.4248 -41.5474 42.0758 
35.2768 -41.7216 42.24 32.7423 -41.0956 42.0518 32.9419 -41.8711 42.3287 
33.3659 -41.3239 41.7662 32.1136 -41.1155 42.0727 32.285 -41.5365 42.3213 
31.5492 -41.5427 42.1481 41.9971 -41.2586 41.5037 41.6298 -41.5612 40.8635 
38.893 -41.0984 41.0457 39.345 -41.7373 41.1523 38.1366 -41.3294 41.5785 
37.9832 -41.0537 40.8613 37.5568 -41.765 41.1445 34.9847 -41.1816 41.5499 
34.5107 -41.7761 41.0996 33.3044 -41.636 41.087 30.9676 -41.0884 40.6693 
31.1363 -41.2287 41.461 30.628 -41.7556 41.2128 41.2986 -41.8241 40.137 
38.9049 -41.4001 40.5018 38.2463 -41.009 40.1865 38.5383 -41.5599 39.8559 
37.1726 -41.4109 40.4392 37.3691 -40.9466 39.9713 36.624 -41.5944 39.8994 
33.7149 -41.5107 40.3061 33.2633 -41.2043 40.1706 32.9102 -41.727 40.4932 
33.2107 -41.4654 39.8372 32.7886 -41.6715 40.0311 31.0323 -41.1983 39.9073 
30.6737 -41.6678 40.3139 40.9846 -41.2249 39.5018 40.6351 -41.5071 38.8464 
37.8729 -40.9708 39.3512 38.2975 -41.8258 39.1422 36.072 -41.3834 39.3783 
36.0161 -40.9246 39.0414 35.5106 -41.4489 38.9978 32.9511 -41.4809 39.7378 
31.3262 -41.2349 38.991 30.9729 -41.8427 39.5386 40.5329 -41.6237 38.2347 
37.943 -41.3608 38.6957 37.5354 -41.6095 37.9371 35.0153 -41.5066 38.4781 
34.878 -41.0553 37.8993 34.4367 -41.6955 38.0037 31.6331 -41.4736 38.0668 
40.234 -41.4137 37.4947 39.7677 -41.3758 36.6228 37.0073 -41.1545 37.4363 
36.7014 -41.5269 36.7551 34.0788 -41.3988 37.6177 33.1746 -41.3751 37.4392 
[...]
CELL_DATA 43368
SCALARS scalars float
LOOKUP_TABLE default
2029 2029 2029 2029 2029 2029 2029 2029 2029 
2029 2029 2029 2029 2029 2029 2029 2029 2029 
2029 2029 2029 2029 2029 2029 2029 2029 2029 
2029 2029 2029 2029 2029 2029 2029 2029 2029 
2029 2029 2029 2029 2029 2029 2029 2029 2029 
2029 2029 2029 2029 2029 2029 2029 2029 2029 
2029 2029 2029 2029 2029 2029 2029 2029 2029 
2029 2029 2029 2029 2029 2029 2029 2029 2029 
2029 2029 2029 2029 2029 2029 2029 2029 2029 
2029 2029 2029 2029 2029 2029 2029 2029 2029 
2029 2029 2029 2029 2029 2029 2029 2029 2029 
2029 2029 2029 2029 2029 2029 2029 2029 2029 
2029 2029 2029 2029 2029 2029 2029 2029 2029 
2029 2029 2029 2029 2029 2029 2029 2029 2029 
2029 2029 2029 2029 2029 2029 2029 2029 2029 
2029 2029 2029 2029 2029 2029 2029 2029 2029 
2029 2029 2029 2029 2029 2029 2029 2029 2029 
2029 2029 2029 2029 2029 2029 2029 2029 2029 
2029 2029 2029 2029 2029 2029 2029 2029 2029 
2029 2029 2029 2029 2029 2029 2029 2029 2029 
2029 2029 2029 2029 2029 2029 2029 2029 2029 
2029 2029 2029 2029 2029 2029 2029 2029 2029 
2029 2029 2029 2029 2029 2029 2029 2029 2029 
2029 2029 2029 2029 2029 2029 2029 2029 2029 
2029 2029 2029 2029 2029 2029 2029 2029 2029 
2029 2029 2029 2029 2029 2029 2029 2029 2029 
2029 2029 2029 2029 2029 2029 2029 2029 2029 
2029 2029 2029 2029 2029 2029 2029 2029 2029 
2029 2029 2029 2029 2029 2029 2029 2029 2029 
2029 2029 2029 2029 2029 2029 2029 2029 2029 
2029 2029 2029 2029 2029 2029 2029 2029 2029 
2029 2029 2029 2029 2029 2029 2029 2029 2029 
2029 2029 2029 2029 2029 2029 2029 2029 2029 
2029 2029 2029 2029 2029 2029 2029 2029 2029 
2029 2029 2029 2029 2029 2029 2029 2029 2029 
2029 2029 2029 2029 2029 2029 2029 2029 2029 
2029 2029 2029 2029 2029 2029 2029 2029 2029 
2029 2029 2029 2029 2029 2029 2029 2029 2029 
2029 2029 2029 2029 2029 2029 2029 2029 2029 
2029 2029 2029 2029 2029 2029 2029 2029 2029 
2029 2029 2029 2029 2029 2029 2029 2029 2029 
2029 2029 2029 2029 2029 2029 2029 2029 2029 
2029 2029 2029 2029 2029 2029 2029 2029 2029 
2029 2029 2029 2029 2029 2029 2029 2029 2029 
2029 2029 2029 2029 2029 2029 2029 2029 2029 
2029 2029 2029 2029 2029 2029 2029 2029 2029 
2029 2029 2029 2029 2029 2029 2029 2029 2029 
2029 2029 2029 2029 2029 2029 2029 2029 2029 
2029 2029 2029 2029 2029 2029 2029 2029 2029 
2029 2029 2029 2029 2029 2029 2029 2029 2029 
2029 2029 2029 2029 2029 2029 2029 2029 2029 
2029 2029 2029 2029 2029 2029 2029 2029 2029 
2029 2029 2029 2029 2029 2029 2029 2029 2029 
2029 2029 2029 2029 2029 2029 2029 2029 2029 
2029 2029 2029 2029 2029 2029 2029 2029 2029 
2029 2029 2029 2029 2029 2029 2029 2029 2029 
2029 2029 2029 2029 2029 2029 2029 2029 2029 
2029 2029 2029 2029 2029 2029 2029 2029 2029 
2029 2029 2029 2029 2029 2029 2029 2029 2029 
2029 2029 2029 2029 2029 2029 2029 2029 2029 
2029 2029 2029 2029 2029 2029 2029 2029 2029 
2029 2029 2029 2029 2029 2029 2029 2029 2029 
2029 2029 2029 2029 2029 2029 2029 2029 2029 
2029 2029 2029 2029 2029 2029 2029 2029 2029 
2029 2029 2029 2029 2029 2029 2029 2029 2029 
2029 2029 2029 2029 2029 2029 2029 2029 2029 
2029 2029 2029 2029 2029 2029 2029 2029 2029 
2029 2029 2029 2029 2029 2029 2029 2029 2029 
2029 2029 2029 2029 2029 2029 2029 2029 2029 
2029 2029 2029 2029 2029 2029 2029 2029 2029 
2029 2029 2029 2029 2029 2029 2029 2029 2029 
2029 2029 2029 2029 2029 2029 2029 2029 2029 
2029 2029 2029 2029 2029 2029 2029 2029 2029 
2029 2029 2029 2029 2029 2029 2029 2029 2029 
2029 2029 2029 2029 2029 2029 2029 2029 2029 
2029 2029 2029 2029 2029 2029 2029 2029 2029 
2029 2029 2029 2029 2029 2029 2029 2029 2029 
2029 2029 2029 2029 2029 2029 2029 2029 2029 
2029 2029 2029 2029 2029 2029 2029 2029 2029 
2029 2029 2029 2029 2029 2029 2029 2029 2029 
2029 2029 2029 2029 2029 2029 2029 2029 2029 
2029 2029 2029 2029 2029 2029 2029 2029 2029 
2029 2029 2029 2029 2029 2029 2029 2029 2029 
2029 2029 2029 2029 2029 2029 2029 2029 2029 
2029 2029 2029 2029 2029 2029 2029 2029 2029 
2029 2029 2029 2029 2029 2029 2029 2029 2029 
2029 2029 2029 2029 2029 2029 2029 2029 2029 
2029 2029 2029 2029 2029 2029 2029 2029 2029 
2029 2029 2029 2029 2029 2029 2029 2029 2029 
2029 2029 2029 2029 2029 2029 2029 2029 2029 
2029 2029 2029 2029 2029 2029 2029 2029 2029 
2029 2029 2029 2029 2029 2029 2029 2029 2029 
2029 2029 2029 2029 2029 2029 2029 2029 2029 
2029 2029 2029 2029 2029 2029 2029 2029 2029 
2029 2029 2029 2029 2029 2029 2029 2029 2029 
2029 2029 2029 2029 2029 2029 2029 2029 2029 
2029 2029 2029 2029 2029 2029 2029 2029 2029 
2029 2029 2029 2029 2029 2029 2029 2029 2029 
2029 2029 2029 2029 2029 2029 2029 2029 2029 
2029 2029 2029 2029 2029 2029 2029 2029 2029 
2029 2029 2029 2029 2029 2029 2029 2029 2029 
2029 2029 2029 2029 2029 2029 2029 2029 2029 
2029 2029 2029 2029 2029 2029 2029 2029 2029 
2029 2029 2029 2029 2029 2029 2029 2029 2029 
2029 2029 2029 2029 2029 2029 2029 2029 2029 
2029 2029 2029 2029 2029 2029 2029 2029 2029 
2029 2029 2029 2029 2029 2029 2029 2029 2029 
2029 2029 2029 2029 2029 2029 2029 2029 2029 
2029 2029 2029 2029 2029 2029 2029 2029 2029 
2029 2029 2029 2029 2029 2029 2029 2029 2029 
2029 2029 2029 2029 2029 2029 2029 2029 2029 
2029 2029 2029 2029 2029 2029 2029 2029 2029 
2029 2029 2029 2029 2029 2029 2029 2029 2029 
2029 2029 2029 2029 2029 2029 2029 2029 2029 
2029 2029 2029 2029 2029 2029 2029 2029 2029 
2029 2029 2029 2029 2029 2029 2029 2029 2029 
2029 2029 2029 2029 2029 2029 2029 2029 2029 
2029 2029 2029 2029 2029 2029 2029 2029 2029 
2029 2029 2029 2029 2029 2029 2029 2029 2029 
2029 2029 2029 2029 2029 2029 2029 2029 2029 
2029 2029 2029 2029 2029 2029 2029 2029 2029 
2029 2029 2029 2029 2029 2029 2029 2029 2029 
2029 2029 2029 2029 2029 2029 2029 2029 2029 
2029 2029 2029 2029 2029 2029 2029 2029 2029 
2029 2029 2029 2029 2029 2029 2029 2029 2029 
2029 2029 2029 2029 2029 2029 2029 2029 2029 
2029 2029 2029 2029 2029 2029 2029 2029 2029 
2029 2029 2029 2029 2029 2029 2029 2029 2029 
2029 2029 2029 2029 2029 2029 2029 2029 2029 
2029 2029 2029 2029 2029 2029 2029 2029 2029 
2029 2029 2029 2029 2029 2029 2029 2029 2029 
2029 2029 2029 2029 2029 2029 2029 2029 2029 
2029 2029 2029 2029 2029 2029 2029 2029 2029 
2029 2029 2029 2029 2029 2029 2029 2029 2029 
2029 2029 2029 2029 2029 2029 2029 2029 2029 
2029 2029 2029 2029 2029 2029 2029 2029 2029 
2029 2029 2029 2029 2029 2029 2029 2029 2029 
2029 2029 2029 2029 2029 2029 2029 2029 2029 
2029 2029 2029 2029 2029 2029 2029 2029 2029 
2029 2029 2029 2029 2029 2029 2029 2029 2029 
2029 2029 2029 2029 2029 2029 2029 2029 2029 
2029 2029 2029 2029 2029 2029 2029 2029 2029 
2029 2029 2029 2029 2029 2029 2029 2029 2029 
2029 2029 2029 2029 2029 2029 2029 2029 2029 
2029 2029 2029 2029 2029 2029 2029 2029 2029 
2029 2029 2029 2029 2029 2029 2029 2029 2029 
2029 2029 2029 2029 2029 2029 2029 2029 2029 
2029 2029 2029 2029 2029 2029 2029 2029 2029 
2029 2029 2029 2029 2029 2029 2029 2029 2029 
2029 2029 2029 2029 2029 2029 2029 2029 2029 
2029 2029 2029 2029 2029 2029 2029 2029 2029 
2029 2029 2029 2029 2029 2029 2029 2029 2029 
2029 2029 2029 2029 2029 2029 2029 2029 2029 
2029 2029 2029 2029 2029 2029 2029 2029 2029 
2029 2029 2029 2029 2029 2029 2029 2029 2029 
2029 2029 2029 2029 2029 2029 2029 2029 2029 
2029 2029 2029 2029 2029 2029 2029 2029 2029 
2029 2029 2029 2029 2029 2029 2029 2029 2029 
2029 2029 2029 2029 2029 2029 2029 2029 2029 
2029 2029 2029 2029 2029 2029 2029 2029 2029 
2029 2029 2029 2029 2029 2029 2029 2029 2029 
2029 2029 2029 2029 2029 2029 2029 2029 2029 
2029 2029 2029 2029 2029 2029 2029 2029 2029 
2029 2029 2029 2029 2029 2029 2029 2029 2029 
2029 2029 2029 2029 2029 2029 2029 2029 2029 
2029 2029 2029 2029 2029 2029 2029 2029 2029 
2029 2029 2029 2029 2029 2029 2029 2029 2029 
2029 2029 2029 2029 2029 2029 2029 2029 2029 
2029 2029 2029 2029 2029 2029 2029 2029 2029 
2029 2029 2029 2029 2029 2029 2029 2029 2029 
2029 2029 2029 2029 2029 2029 2029 2029 2029 
2029 2029 2029 2029 2029 2029 2029 2029 2029 
2029 2029 2029 2029 2029 2029 2029 2029 2029 
2029 2029 2029 2029 2029 2029 2029 2029 2029 
2029 2029 2029 2029 2029 2029 2029 2029 2029 
2029 2029 2029 2029 2029 2029 2029 2029 2029 
2029 2029 2029 2029 2029 2029 2029 2029 2029 
2029 2029 2029 2029 2029 2029 2029 2029 2029 
2029 2029 2029 2029 2029 2029 2029 2029 2029 
2029 2029 2029 2029 2029 2029 2029 2029 2029 
2029 2029 2029 2029 2029 2029 2029 2029 2029 
2029 2029 2029 2029 2029 2029 2029 2029 2029 
2029 2029 2029 2029 2029 2029 2029 2029 2029 
2029 2029 2029 2029 2029 2029 2029 2029 2029 
2029 2029 2029 2029 2029 2029 2029 2029 2029 
2029 2029 2029 2029 2029 2029 2029 2029 2029 
2029 2029 2029 2029 2029 2029 2029 2029 2029 
2029 2029 2029 2029 2029 2029 2029 2029 2029 
2029 2029 2029 2029 2029 2029 2029 2029 2029 
2029 2029 2029 2029 2029 2029 2029 2029 2029 
2029 2029 2029 2029 2029 2029 2029 2029 2029 
2029 2029 2029 2029 2029 2029 2029 2029 2029 
2029 2029 2029 2029 2029 2029 2029 2029 2029 
2029 2029 2029 2029 2029 2029 2029 2029 2029 
2029 2029 2029 2029 2029 2029 2029 2029 2029 
2029 2029 2029 2029 2029 2029 2029 2029 2029 
2029 2029 2029 2029 2029 2029 2029 2029 2029 
2029 2029 2029 2029 2029 2029 2029 2029 2029 
2029 2029 2029 2029 2029 2029 2029 2029 2029 
2029 2029 2029 2029 2029 2029 2029 2029 2029 
2029 2029 2029 2029 2029 2029 2029 2029 2029 
2029 2029 2029 2029 2029 2029 2029 2029 2029 
2029 2029 2029 2029 2029 2029 2029 2029 2029 
2029 2029 2029 2029 2029 2029 2029 2029 2029 
2029 2029 2029 2029 2029 2029 2029 2029 2029 
2029 2029 2029 2029 2029 2029 2029 2029 2029 
2029 2029 2029 2029 2029 2029 2029 2029 2029 
2029 2029 2029 2029 2029 2029 2029 2029 2029 
2029 2029 2029 2029 2029 2029 2029 2029 2029 
2029 2029 2029 2029 2029 2029 2029 2029 2029 
2029 2029 2029 2029 2029 2029 2029 2029 2029 
2029 2029 2029 2029 2029 2029 2029 2029 2029 
2029 2029 2029 2029 2029 2029 2029 2029 2029 
2029 2029 2029 2029 2029 2029 2029 2029 2029 
2029 2029 2029 2029 2029 2029 2029 2029 2029 
2029 2029 2029 2029 2029 2029 2029 2029 2029 
2029 2029 2029 2029 2029 2029 2029 2029 2029 
2029 2029 2029 2029 2029 2029 2029 2029 2029 
2029 2029 2029 2029 2029 2029 2029 2029 2029 
2029 2029 2029 2029 2029 2029 2029 2029 2029 
2029 2029 2029 2029 2029 2029 2029 2029 2029 
2029 2029 2029 2029 2029 2029 2029 2029 2029 
2029 2029 2029 2029 2029 2029 2029 2029 2029 
2029 2029 2029 2029 2029 2029 2029 2029 2029 
2029 2029 2029 2029 2029 2029 2029 2029 2029 
2029 2029 2029 2029 2029 2029 2029 2029 2029 
2029 2029 2029 2029 2029 2029 2029 2029 2029 
2029 2029 2029 2029 2029 2029 2029 2029 2029 
2029 2029 2029 2029 2029 2029 2029 2029 2029 
2029 2029 2029 2029 2029 2029 2029 2029 2029 
2029 2029 2029 2029 2029 2029 2029 2029 2029 
2029 2029 2029 2029 2029 2029 2029 2029 2029 
2029 2029 2029 2029 2029 2029 2029 2029 2029 
2029 2029 2029 2029 2029 2029 2029 2029 2029 
2029 2029 2029 2029 2029 2029 2029 2029 2029 
2029 2029 2029 2029 2029 2029 2029 2029 2029 
2029 2029 2029 2029 2029 2029 2029 2029 2029 
2029 2029 2029 2029 2029 2029 2029 2029 2029 
2029 2029 2029 2029 2029 2029 2029 2029 2029 
2029 2029 2029 2029 2029 2029 2029 2029 2029 
2029 2029 2029 2029 2029 2029 2029 2029 2029 
2029 2029 2029 2029 2029 2029 2029 2029 2029 
2029 2029 2029 2029 2029 2029 2029 2029 2029 
2029 2029 2029 2029 2029 2029 2029 2029 2029 
2029 2029 2029 2029 2029 2029 2029 2029 2029 
2029 2029 2029 2029 2029 2029 2029 2029 2029 
2029 2029 2029 2029 2029 2029 2029 2029 2029 
2029 2029 2029 2029 2029 2029 2029 2029 2029 
2029 2029 2029 2029 2029 2029 2029 2029 2029 
2029 2029 2029 2029 2029 2029 2029 2029 2029 
2029 2029 2029 2029 2029 2029 2029 2029 2029 
2029 2029 2029 2029 2029 2029 2029 2029 2029 
2029 2029 2029 2029 2029 2029 2029 2029 2029 
2029 2029 2029 2029 2029 2029 2029 2029 2029 
2029 2029 2029 2029 2029 2029 2029 2029 2029 
2029 2029 2029 2029 2029 2029 2029 2029 2029 
2029 2029 2029 2029 2029 2029 2029 2029 2029 
2029 2029 2029 2029 2029 2029 2029 2029 2029 
2029 2029 2029 2029 2029 2029 2029 2029 2029 
2029 2029 2029 2029 2029 2029 2029 2029 2029 
2029 2029 2029 2029 2029 2029 2029 2029 2029 
2029 2029 2029 2029 2029 2029 2029 2029 2029 
2029 2029 2029 2029 2029 2029 2029 2029 2029 
2029 2029 2029 2029 2029 2029 2029 2029 2029 
2029 2029 2029 2029 2029 2029 2029 2029 2029 
2029 2029 2029 2029 2029 2029 2029 2029 2029 
2029 2029 2029 2029 2029 2029 2029 2029 2029 
2029 2029 2029 2029 2029 2029 2029 2029 2029 
2029 2029 2029 2029 2029 2029 2029 2029 2029 
2029 2029 2029 2029 2029 2029 2029 2029 2029 
2029 2029 2029 2029 2029 2029 2029 2029 2029 
2029 2029 2029 2029 2029 2029 2029 2029 2029 
2029 2029 2029 2029 2029 2029 2029 2029 2029 
2029 2029 2029 2029 2029 2029 2029 2029 2029 
2029 2029 2029 2029 2029 2029 2029 2029 2029 
2029 2029 2029 2029 2029 2029 2029 2029 2029 
2029 2029 2029 2029 2029 2029 2029 2029 2029 
2029 2029 2029 2029 2029 2029 2029 2029 2029 
2029 2029 2029 2029 2029 2029 2029 2029 2029 
2029 2029 2029 2029 2029 2029 2029 2029 2029 
2029 2029 2029 2029 2029 2029 2029 2029 2029 
2029 2029 2029 2029 2029 2029 2029 2029 2029 
2029 2029 2029 2029 2029 2029 2029 2029 2029 
2029 2029 2029 2029 2029 2029 2029 2029 2029 
2029 2029 2029 2029 2029 2029 2029 2029 2029 
2029 2029 2029 2029 2029 2029 2029 2029 2029 
2029 2029 2029 2029 2029 2029 2029 2029 2029 
2029 2029 2029 2029 2029 2029 2029 2029 2029 
2029 2029 2029 2029 2029 2029 2029 2029 2029 
2029 2029 2029 2029 2029 2029 2029 2029 2029 
2029 2029 2029 2029 2029 2029 2029 2029 2029 
2029 2029 2029 2029 2029 2029 2029 2029 2029 
2029 2029 2029 2029 2029 2029 2029 2029 2029 
2029 2029 2029 2029 2029 2029 2029 2029 2029 
2029 2029 2029 2029 2029 2029 2029 2029 2029 
2029 2029 2029 2029 2029 2029 2029 2029 2029 
2029 2029 2029 2029 2029 2029 2029 2029 2029 
2029 2029 2029 2029 2029 2029 2029 2029 2029 
2029 2029 2029 2029 2029 2029 2029 2029 2029 
2029 2029 2029 2029 2029 2029 2029 2029 2029 
2029 2029 2029 2029 2029 2029 2029 2029 2029 
2029 2029 2029 2029 2029 2029 2029 2029 2029 
2029 2029 2029 2029 2029 2029 2029 2029 2029 
2029 2029 2029 2029 2029 2029 2029 2029 2029 
2029 2029 2029 2029 2029 2029 2029 2029 2029 
2029 2029 2029 2029 2029 2029 2029 2029 2029 
2029 2029 2029 2029 2029 2029 2029 2029 2029 
2029 2029 2029 2029 2029 2029 2029 2029 2029 
2029 2029 2029 2029 2029 2029 2029 2029 2029 
2029 2029 2029 2029 2029 2029 2029 2029 2029 
2029 2029 2029 2029 2029 2029 2029 2029 2029 
2029 2029 2029 2029 2029 2029 2029 2029 2029 
2029 2029 2029 2029 2029 2029 2029 2029 2029 
2029 2029 2029 2029 2029 2029 2029 2029 2029 
2029 2029 2029 2029 2029 2029 2029 2029 2029 
2029 2029 2029 2029 2029 2029 2029 2029 2029 
2029 2029 2029 2029 2029 2029 2029 2029 2029 
2029 2029 2029 2029 2029 2029 2029 2029 2029 
2029 2029 2029 2029 2029 2029 2029 2029 2029 
2029 2029 2029 2029 2029 2029 2029 2029 2029 
2029 2029 2029 2029 2029 2029 2029 2029 2029 
2029 2029 2029 2029 2029 2029 2029 2029 2029 
2029 2029 2029 2029 2029 2029 2029 2029 2029 
2029 2029 2029 2029 2029 2029 2029 2029 2029 
2029 2029 2029 2029 2029 2029 2029 2029 2029 
2029 2029 2029 2029 2029 2029 2029 2029 2029 
2029 2029 2029 2029 2029 2029 2029 2029 2029 
2029 2029 2029 2029 2029 2029 2029 2029 2029 
2029 2029 2029 2029 2029 2029 2029 2029 2029 
2029 2029 2029 2029 2029 2029 2029 2029 2029 
2029 2029 2029 2029 2029 2029 2029 2029 2029 
2029 2029 2029 2029 2029 2029 2029 2029 2029 
2029 2029 2029 2029 2029 2029 2029 2029 2029 
2029 2029 2029 2029 2029 2029 2029 2029 2029 
2029 2029 2029 2029 2029 2029 2029 2029 2029 
2029 2029 2029 2029 2029 2029 2029 2029 2029 
2029 2029 2029 2029 2029 2029 2029 2029 2029 
2029 2029 2029 2029 2029 2029 2029 2029 2029 
2029 2029 2029 2029 2029 2029 2029 2029 2029 
2029 2029 2029 2029 2029 2029 2029 2029 2029 
2029 2029 2029 2029 2029 2029 2029 2029 2029 
2029 2029 2029 2029 2029 2029 2029 2029 2029 
2029 2029 2029 2029 2029 2029 2029 2029 2029 
2029 2029 2029 2029 2029 2029 2029 2029 2029 
2029 2029 2029 2029 2029 2029 2029 2029 2029 
2029 2029 2029 2029 2029 2029 2029 2029 2029 
2029 2029 2029 2029 2029 2029 2029 2029 2029 
2029 2029 2029 2029 2029 2029 2029 2029 2029 
2029 2029 2029 2029 2029 2029 2029 2029 2029 
2029 2029 2029 2029 2029 2029 2029 2029 2029 
2029 2029 2029 2029 2029 2029 2029 2029 2029 
2029 2029 2029 2029 2029 2029 2029 2029 2029 
2029 2029 2029 2029 2029 2029 2029 2029 2029 
2029 2029 2029 2029 2029 2029 2029 2029 2029 
2029 2029 2029 2029 2029 2029 2029 2029 2029 
2029 2029 2029 2029 2029 2029 2029 2029 2029 
2029 2029 2029 2029 2029 2029 2029 2029 2029 
2029 2029 2029 2029 2029 2029 2029 2029 2029 
2029 2029 2029 2029 2029 2029 2029 2029 2029 
2029 2029 2029 2029 2029 2029 2029 2029 2029 
2029 2029 2029 2029 2029 2029 2029 2029 2029 
2029 2029 2029 2029 2029 2029 2029 2029 2029 
2029 2029 2029 2029 2029 2029 2029 2029 2029 
2029 2029 2029 2029 2029 2029 2029 2029 2029 
2029 2029 2029 2029 2029 2029 2029 2029 2029 
2029 2029 2029 2029 2029 2029 2029 2029 2029 
2029 2029 2029 2029 2029 2029 2029 2029 2029 
2029 2029 2029 2029 2029 2029 2029 2029 2029 
2029 2029 2029 2029 2029 2029 2029 2029 2029 
2029 2029 2029 2029 2029 2029 2029 2029 2029 
2029 2029 2029 2029 2029 2029 2029 2029 2029 
2029 2029 2029 2029 2029 2029 2029 2029 2029 
2029 2029 2029 2029 2029 2029 2029 2029 2029 
2029 2029 2029 2029 2029 2029 2029 2029 2029 
2029 2029 2029 2029 2029 2029 2029 2029 2029 
2029 2029 2029 2029 2029 2029 2029 2029 2029 
2029 2029 2029 2029 2029 2029 2029 2029 2029 
2029 2029 2029 2029 2029 2029 2029 2029 2029 
2029 2029 2029 2029 2029 2029 2029 2029 2029 
2029 2029 2029 2029 2029 2029 2029 2029 2029 
2029 2029 2029 2029 2029 2029 2029 2029 2029 
2029 2029 2029 2029 2029 2029 2029 2029 2029 
2029 2029 2029 2029 2029 2029 2029 2029 2029 
2029 2029 2029 2029 2029 2029 2029 2029 2029 
2029 2029 2029 2029 2029 2029 2029 2029 2029 
2029 2029 2029 2029 2029 2029 2029 2029 2029 
2029 2029 2029 2029 2029 2029 2029 2029 2029 
2029 2029 2029 2029 2029 2029 2029 2029 2029 
2029 2029 2029 2029 2029 2029 2029 2029 2029 
2029 2029 2029 2029 2029 2029 2029 2029 2029 
2029 2029 2029 2029 2029 2029 2029 2029 2029 
2029 2029 2029 2029 2029 2029 2029 2029 2029 
2029 2029 2029 2029 2029 2029 2029 2029 2029 
2029 2029 2029 2029 2029 2029 2029 2029 2029 
2029 2029 2029 2029 2029 2029 2029 2029 2029 
2029 2029 2029 2029 2029 2029 2029 2029 2029 
2029 2029 2029 2029 2029 2029 2029 2029 2029 
2029 2029 2029 2029 2029 2029 2029 2029 2029 
2029 2029 2029 2029 2029 2029 2029 2029 2029 
2029 2029 2029 2029 2029 2029 2029 2029 2029 
2029 2029 2029 2029 2029 2029 2029 2029 2029 
2029 2029 2029 2029 2029 2029 2029 2029 2029 
2029 2029 2029 2029 2029 2029 2029 2029 2029 
2029 2029 2029 2029 2029 2029 2029 2029 2029 
2029 2029 2029 2029 2029 2029 2029 2029 2029 
2029 2029 2029 2029 2029 2029 2029 2029 2029 
2029 2029 2029 2029 2029 2029 2029 2029 2029 
2029 2029 2029 2029 2029 2029 2029 2029 2029 
2029 2029 2029 2029 2029 2029 2029 2029 2029 
2029 2029 2029 2029 2029 2029 2029 2029 2029 
2029 2029 2029 2029 2029 2029 2029 2029 2029 
2029 2029 2029 2029 2029 2029 2029 2029 2029 
2029 2029 2029 2029 2029 2029 2029 2029 2029 
2029 2029 2029 2029 2029 2029 2029 2029 2029 
2029 2029 2029 2029 2029 2029 2029 2029 2029 
2029 2029 2029 2029 2029 2029 2029 2029 2029 
2029 2029 2029 2029 2029 2029 2029 2029 2029 
2029 2029 2029 2029 2029 2029 2029 2029 2029 
2029 2029 2029 2029 2029 2029 2029 2029 2029 
2029 2029 2029 2029 2029 2029 2029 2029 2029 
2029 2029 2029 2029 2029 2029 2029 2029 2029 
2029 2029 2029 2029 2029 2029 2029 2029 2029 
2029 2029 2029 2029 2029 2029 2029 2029 2029 
2029 2029 2029 2029 2029 2029 2029 2029 2029 
2029 2029 2029 2029 2029 2029 2029 2029 2029 
2029 2029 2029 2029 2029 2029 2029 2029 2029 
2029 2029 2029 2029 2029 2029 2029 2029 2029 
2029 2029 2029 2029 2029 2029 2029 2029 2029 
2029 2029 2029 2029 2029 2029 2029 2029 2029 
2029 2029 2029 2029 2029 2029 2029 2029 2029 
2029 2029 2029 2029 2029 2029 2029 2029 2029 
2029 2029 2029 2029 2029 2029 2029 2029 2029 
2029 2029 2029 2029 2029 2029 2029 2029 2029 