# vtk DataFile Version 4.0
vtk output
ASCII
DATASET POLYDATA
POINTS 24594 float
56.7597 -37.1712 41.9471 56.9815 -37.416 42.4071 57.3223 -37.5175 42.1681 
55.7721 -37.049 41.859 56.2788 -37.4288 42.4909 54.8025 -37.1196 41.7352 
55.0764 -37.6655 42.5133 54.3699 -37.585 42.0826 57.1789 -37.5356 41.4831 
56.4789 -37.4963 40.756 56.2159 -37.1056 41.2315 55.2128 -37.0233 41.101 
54.107 -37.3575 41.5651 54.2805 -37.1864 41.0268 53.5521 -37.7058 40.9147 
55.6497 -37.4126 40.4806 54.6511 -37.4411 40.3965 53.9004 -37.6189 40.4059 
56.9643 -37.9502 42.8144 57.1239 -38.5346 43.3517 57.6652 -38.3846 42.8464 
55.7684 -37.9881 43.0269 56.2512 -38.4977 43.5163 55.0808 -38.1216 43.0353 
55.2817 -38.5086 43.4716 54.6215 -38.4263 43.1051 57.8005 -38.0777 42.1574 
58.2846 -38.6678 42.5017 58.2846 -38.7191 41.8961 53.6046 -37.8672 41.8282 
54.1216 -38.1979 42.538 52.7497 -38.1305 41.722 53.3017 -38.4567 42.4367 
52.5285 -38.7942 42.1557 57.8082 -38.3241 41.4459 57.1002 -37.9405 40.7587 
57.5824 -38.6137 40.8078 52.9857 -37.9441 41.1906 52.1156 -38.4542 41.4502 
52.2811 -38.176 41.0191 51.6835 -38.7339 40.8332 57.0947 -38.2317 40.1467 
57.3077 -38.7466 40.1918 56.32 -37.9518 40.0347 55.2242 -37.9742 39.8512 
54.2458 -38.0571 39.8678 53.6451 -38.2184 40.1001 53.0279 -38.5401 40.3682 
52.0784 -38.4307 40.5235 56.8267 -38.4119 39.7235 56.0314 -38.4674 39.6378 
54.9904 -38.5177 39.6333 54.2052 -38.5609 39.7149 57.9528 -39.1725 43.8888 
58.0544 -39.7053 44.2813 58.5516 -39.4741 43.8186 56.9187 -38.9802 43.9383 
57.3071 -39.6596 44.5357 55.7428 -38.987 44.0388 56.2673 -39.466 44.5616 
54.6816 -38.9879 43.8496 55.1187 -39.5597 44.5357 53.7708 -39.2024 43.7372 
54.251 -39.4945 44.2561 53.5774 -39.8279 44.0124 58.7399 -39.1565 43.013 
59.0901 -39.7816 43.3965 59.3333 -39.7434 42.6874 57.8435 -38.7654 43.277 
53.9112 -38.7702 43.1599 53.0047 -39.6134 43.5003 53.1237 -38.9982 43.0156 
52.4944 -39.4788 42.8342 59.1281 -39.4493 42.4129 58.7452 -39.3443 42.0783 
52.2304 -39.4617 42.1782 58.0842 -39.4631 41.4604 57.461 -39.4031 40.8885 
54.8951 -39.1946 40.6094 55.5406 -39.701 40.8431 54.8916 -39.78 41.5395 
54.455 -39.6208 41.0785 51.8221 -39.404 41.5819 51.2768 -39.5133 41.0052 
57.083 -39.3181 40.4 56.7318 -38.9046 39.8961 56.3131 -39.678 40.2382 
55.7358 -38.9894 40.0373 54.8154 -38.8365 39.895 53.8861 -39.5129 40.5517 
54.0527 -38.8261 40.0994 52.9242 -39.0372 39.8998 53.2839 -39.4735 40.0377 
52.0366 -38.9188 40.0265 51.1692 -39.2424 40.4121 51.2276 -39.2583 39.8194 
50.7481 -39.7087 40.1901 52.7197 -39.5065 39.6549 51.7404 -39.5875 39.5114 
50.9809 -39.723 39.6413 50.6893 -39.194 7.92382 51.1079 -39.4963 8.37282 
51.3241 -39.4335 8.04038 49.982 -39.1783 7.75802 50.3163 -39.4398 8.43079 
49.638 -39.5013 8.08198 51.1108 -39.5384 7.50529 50.5735 -39.4179 6.61541 
50.1409 -39.1454 6.99273 49.4701 -39.5136 7.06804 50.0297 -39.2217 6.12005 
50.385 -39.6542 5.77073 49.6822 -39.3948 6.17715 49.8654 -39.6547 5.69058 
56.6811 -40.06 45.0333 57.0855 -40.841 45.3436 57.4312 -40.3501 44.9434 
55.7311 -39.9601 45.0276 55.996 -40.6197 45.3949 54.9006 -40.1259 44.9631 
55.0465 -40.5992 45.3104 54.3971 -40.6228 45.087 57.8856 -40.2308 44.6003 
58.5676 -40.2385 44.1167 54.0143 -40.4218 44.6093 53.3034 -40.5856 44.1162 
59.167 -40.5365 43.6593 59.4425 -40.4916 43.0841 52.9814 -40.2597 43.7691 
52.0156 -40.0378 42.6196 52.3126 -40.3109 43.4264 51.6824 -40.7828 43.1958 
59.2052 -39.8581 42.1264 59.3262 -40.5645 42.3042 54.9883 -40.1353 42.0848 
55.445 -40.4581 41.6884 55.1372 -40.7537 42.3313 54.4842 -40.4308 42.0836 
51.9789 -39.8415 42.0383 51.4931 -40.5389 42.2186 58.8251 -40.196 41.7539 
58.0385 -40.7636 41.3603 57.199 -40.3709 41.3724 56.8933 -39.9672 40.7503 
56.6267 -40.6253 41.0698 55.5131 -40.4232 40.9819 53.9977 -40.4578 41.5377 
54.0303 -39.9511 41.0196 53.5235 -40.4632 40.9899 50.8781 -39.8695 40.7953 
50.972 -40.4764 41.4703 50.4641 -40.4662 40.8184 56.3067 -40.5608 40.2375 
56.0635 -40.2014 39.8787 55.7729 -40.3653 40.2372 53.0527 -40.4977 40.4551 
52.9263 -40.0596 39.8491 52.5109 -40.6328 39.9857 50.4695 -40.3257 40.0633 
56.0044 -40.4848 39.7738 52.1022 -40.3727 39.5666 50.9396 -40.4968 39.5312 
52.7572 -40.2244 8.93112 53.3208 -40.7022 9.29352 53.4063 -40.4412 8.96981 
51.8801 -40.1164 9.01529 52.3552 -40.6214 9.49306 50.9372 -39.9398 8.90799 
51.2945 -40.4585 9.51752 49.715 -39.9418 8.86601 50.2721 -40.4618 9.53245 
48.7238 -40.0785 8.88251 49.2451 -40.4632 9.55702 47.9868 -40.1942 8.78629 
48.3003 -40.4333 9.49223 47.6284 -40.4949 9.09925 53.1636 -40.561 8.50833 
52.4759 -40.5652 7.8772 51.9338 -39.9573 8.28029 49.0744 -39.815 7.99776 
48.2828 -40.1276 7.9094 47.4593 -40.6653 8.05419 51.7682 -40.2901 7.45857 
51.1718 -39.9457 6.97192 51.5598 -40.4864 6.68452 48.8891 -40.0695 7.01628 
48.3791 -40.4067 7.07175 47.896 -40.5914 7.35557 55.0381 -40.322 6.03418 
54.7608 -40.6385 6.29972 55.3693 -40.6123 5.99978 54.6448 -40.5925 5.8088 
50.9859 -39.9675 6.18556 51.3284 -40.5867 5.74862 49.4367 -40.1426 6.06375 
48.7874 -40.8081 6.46201 55.0635 -40.4878 5.82847 50.8795 -40.2348 5.23294 
51.1405 -40.6617 5.04662 50.255 -40.5567 5.35372 50.7303 -40.4839 4.8563 
50.9828 -40.4958 4.77134 44.9429 -41.2863 47.9607 45.0809 -41.4471 48.2471 
45.2334 -41.3567 47.9617 44.682 -41.7581 48.0831 45.1185 -41.6609 47.5847 
58.0768 -40.871 44.8322 57.8187 -41.3551 45.3946 58.5453 -41.5136 44.9949 
57.1897 -41.4828 45.6874 56.2859 -41.3558 45.6918 55.1122 -41.4535 45.6321 
53.9823 -40.987 45.0107 54.2552 -41.2877 45.3013 53.585 -41.6875 44.9532 
58.89 -41.0618 44.2495 59.1257 -41.687 44.5773 59.39 -41.4383 43.8425 
52.6239 -40.9386 44.0088 52.962 -41.483 44.4577 51.9677 -41.042 43.8565 
52.1812 -41.5377 44.2536 51.6544 -41.6188 43.8882 59.432 -41.6062 42.8024 
51.2888 -41.5809 43.1362 59.1146 -41.324 42.2154 58.8251 -40.9732 41.7513 
58.7739 -41.7444 41.6917 56.2008 -41.0114 41.8403 56.3095 -41.7356 42.3552 
55.7815 -41.2988 42.5276 54.9989 -41.5552 42.6957 54.2549 -41.2643 42.354 
53.9708 -40.9433 42.0363 53.5655 -41.6566 41.9612 50.873 -41.6171 42.4918 
51.0085 -41.0079 41.9797 50.4942 -41.504 41.9898 58.3422 -41.5092 41.105 
58.0234 -41.1939 40.9433 57.6931 -41.4286 41.0169 57.0088 -41.4907 41.554 
55.7585 -41.5854 41.6209 56.2513 -41.4975 41.0484 55.5078 -41.2599 40.901 
53.1851 -41.3169 41.3659 53.0319 -41.0095 40.974 52.6078 -41.6683 40.9367 
49.7854 -41.0205 40.6431 49.9711 -41.5133 41.4983 49.361 -41.6236 41.1021 
57.9467 -41.6905 40.7576 55.763 -41.5999 40.4794 55.9096 -40.887 40.0699 
52.241 -41.3244 40.3173 51.9229 -41.0881 39.8414 51.5777 -41.8538 39.9635 
50.0547 -40.8571 39.9322 48.8736 -41.6379 40.6169 49.2763 -41.2417 40.0201 
48.419 -41.7785 39.8644 51.0711 -41.424 39.5354 49.9921 -41.3183 39.5566 
49.1001 -41.7063 39.4198 47.0235 -41.2933 19.9791 47.0161 -41.4301 20.2641 
47.2208 -41.5236 19.9961 46.7148 -41.8031 20.0398 47.0315 -41.4266 19.7068 
44.9733 -41.1571 18.6289 44.9181 -41.4078 19.2696 45.4541 -41.4022 18.9371 
44.6052 -41.6916 19.1627 48.0638 -41.354 17.9652 48.2249 -41.4885 18.209 
48.4376 -41.5961 17.9097 47.7935 -41.5168 18.1032 45.6996 -41.1814 18.1342 
46.164 -41.5123 18.3506 46.4214 -41.5772 17.8068 45.1833 -41.1476 17.9015 
44.689 -41.499 18.2407 53.0119 -41.3439 17.0126 53.1574 -41.4867 17.2651 
53.2508 -41.4886 16.8471 52.6191 -41.7056 16.9665 47.8857 -41.803 17.6874 
45.925 -41.5741 17.5668 45.2202 -41.7279 17.6519 52.9087 -41.5994 16.5946 
51.6849 -41.0465 9.99531 52.0778 -41.8256 10.323 52.4847 -41.2907 9.94437 
50.7281 -40.9694 10.0128 51.0154 -41.6254 10.3646 49.7456 -40.9889 10.0347 
50.1687 -41.5037 10.3479 48.722 -40.9751 10.0433 49.1628 -41.7206 10.5134 
47.6866 -40.9333 9.85038 48.0102 -41.5913 10.3983 46.953 -41.1766 9.7828 
47.0629 -41.5977 10.3384 46.4846 -41.6171 10.0301 53.8426 -40.9575 9.00381 
53.9822 -41.4774 9.50829 54.3195 -41.8176 9.10049 53.1977 -41.3073 9.72264 
47.0696 -40.9315 8.88555 46.4903 -41.536 9.11068 53.7846 -41.3633 8.50747 
53.0413 -41.0141 7.85741 53.4881 -41.64 7.8399 46.9692 -41.0787 8.03792 
46.7188 -41.4326 8.20275 55.0811 -41.0794 6.74956 54.9972 -41.5004 7.11497 
55.3809 -41.6416 6.72559 54.7395 -41.4848 7.05956 53.0684 -41.1646 6.87255 
53.5417 -41.7173 7.23988 52.2638 -40.8193 7.19407 48.1137 -40.893 6.84246 
47.6048 -41.2687 7.11038 47.0195 -41.6511 7.54667 56.7894 -41.119 5.93386 
57.0767 -41.6857 6.26821 57.3592 -41.4345 5.79987 55.9216 -41.0079 6.23 
56.2729 -41.7228 6.3135 53.797 -40.8905 5.97237 54.241 -41.5466 6.78167 
52.7541 -40.9791 5.80356 51.9687 -40.9611 6.11279 49.5408 -41.164 5.90306 
49.0501 -41.8073 6.31983 48.1466 -41.5661 6.61318 57.0778 -41.1576 5.28214 
57.4351 -41.6319 5.09615 56.1575 -41.0829 5.28489 55.0315 -41.0759 5.327 
55.5545 -41.6667 4.80362 53.9862 -40.9759 4.99088 54.5625 -41.4528 4.61546 
53.0832 -40.9463 5.09536 52.1309 -41.1821 4.90943 51.2385 -41.3808 5.3096 
51.6531 -41.5202 4.88335 50.8554 -40.7473 4.90882 50.2758 -41.7094 5.63665 
56.7306 -41.6275 4.56502 56.1407 -41.5988 4.66883 53.9741 -41.2034 4.11044 
54.4964 -41.6421 3.9196 53.1449 -41.1262 4.11871 52.5329 -41.3935 4.03907 
52.0687 -41.5568 4.48224 53.9159 -41.5917 3.5583 53.2275 -41.6867 3.60564 
45.8979 -42.2395 50.8267 45.9957 -42.3838 51.345 46.3655 -42.4687 50.8761 
45.6938 -42.6712 51.2731 45.8083 -42.1615 49.966 46.5382 -42.4339 49.7572 
45.4579 -42.6891 50.1387 45.9993 -42.0798 49.1449 46.5787 -42.4506 48.702 
45.1079 -42.3341 49.4395 45.1806 -41.9077 48.9035 44.732 -42.3758 48.6541 
45.7493 -41.8914 48.196 46.554 -42.5901 47.9192 44.5483 -42.6682 47.7998 
45.8297 -42.4759 47.4615 45.0832 -42.0808 46.7683 45.4042 -42.5014 46.8195 
44.587 -42.2236 47.1642 57.9245 -41.9774 45.8065 58.0851 -42.8223 46.3443 
58.647 -42.4186 45.8926 56.7287 -41.9597 46.0347 57.014 -42.6177 46.3785 
55.7151 -41.9629 46.0366 55.9747 -42.5872 46.3785 54.8977 -42.1612 45.9445 
55.2181 -42.5062 46.2585 54.5347 -42.8457 46.0245 45.1174 -42.233 46.128 
45.3264 -42.759 46.0505 44.5285 -42.6387 46.045 58.8888 -42.0816 45.2768 
59.1303 -42.6398 45.6372 59.3975 -42.4512 44.8793 54.037 -42.3638 45.5036 
[...]
CELL_DATA 49308
SCALARS scalars float
LOOKUP_TABLE default
2008 2008 2008 2008 2008 2008 2008 2008 2008 
2008 2008 2008 2008 2008 2008 2008 2008 2008 
2008 2008 2008 2008 2008 2008 2008 2008 2008 
2008 2008 2008 2008 2008 2008 2008 2008 2008 
2008 2008 2008 2008 2008 2008 2008 2008 2008 
2008 2008 2008 2008 2008 2008 2008 2008 2008 
2008 2008 2008 2008 2008 2008 2008 2008 2008 
2008 2008 2008 2008 2008 2008 2008 2008 2008 
2008 2008 2008 2008 2008 2008 2008 2008 2008 
2008 2008 2008 2008 2008 2008 2008 2008 2008 
2008 2008 2008 2008 2008 2008 2008 2008 2008 
2008 2008 2008 2008 2008 2008 2008 2008 2008 
2008 2008 2008 2008 2008 2008 2008 2008 2008 
2008 2008 2008 2008 2008 2008 2008 2008 2008 
2008 2008 2008 2008 2008 2008 2008 2008 2008 
2008 2008 2008 2008 2008 2008 2008 2008 2008 
2008 2008 2008 2008 2008 2008 2008 2008 2008 
2008 2008 2008 2008 2008 2008 2008 2008 2008 
2008 2008 2008 2008 2008 2008 2008 2008 2008 
2008 2008 2008 2008 2008 2008 2008 2008 2008 
2008 2008 2008 2008 2008 2008 2008 2008 2008 
2008 2008 2008 2008 2008 2008 2008 2008 2008 
2008 2008 2008 2008 2008 2008 2008 2008 2008 
2008 2008 2008 2008 2008 2008 2008 2008 2008 
2008 2008 2008 2008 2008 2008 2008 2008 2008 
2008 2008 2008 2008 2008 2008 2008 2008 2008 
2008 2008 2008 2008 2008 2008 2008 2008 2008 
2008 2008 2008 2008 2008 2008 2008 2008 2008 
2008 2008 2008 2008 2008 2008 2008 2008 2008 
2008 2008 2008 2008 2008 2008 2008 2008 2008 
2008 2008 2008 2008 2008 2008 2008 2008 2008 
2008 2008 2008 2008 2008 2008 2008 2008 2008 
2008 2008 2008 2008 2008 2008 2008 2008 2008 
2008 2008 2008 2008 2008 2008 2008 2008 2008 
2008 2008 2008 2008 2008 2008 2008 2008 2008 
2008 2008 2008 2008 2008 2008 2008 2008 2008 
2008 2008 2008 2008 2008 2008 2008 2008 2008 
2008 2008 2008 2008 2008 2008 2008 2008 2008 
2008 2008 2008 2008 2008 2008 2008 2008 2008 
2008 2008 2008 2008 2008 2008 2008 2008 2008 
2008 2008 2008 2008 2008 2008 2008 2008 2008 
2008 2008 2008 2008 2008 2008 2008 2008 2008 
2008 2008 2008 2008 2008 2008 2008 2008 2008 
2008 2008 2008 2008 2008 2008 2008 2008 2008 
2008 2008 2008 2008 2008 2008 2008 2008 2008 
2008 2008 2008 2008 2008 2008 2008 2008 2008 
2008 2008 2008 2008 2008 2008 2008 2008 2008 
2008 2008 2008 2008 2008 2008 2008 2008 2008 
2008 2008 2008 2008 2008 2008 2008 2008 2008 
2008 2008 2008 2008 2008 2008 2008 2008 2008 
2008 2008 2008 2008 2008 2008 2008 2008 2008 
2008 2008 2008 2008 2008 2008 2008 2008 2008 
2008 2008 2008 2008 2008 2008 2008 2008 2008 
2008 2008 2008 2008 2008 2008 2008 2008 2008 
2008 2008 2008 2008 2008 2008 2008 2008 2008 
2008 2008 2008 2008 2008 2008 2008 2008 2008 
2008 2008 2008 2008 2008 2008 2008 2008 2008 
2008 2008 2008 2008 2008 2008 2008 2008 2008 
2008 2008 2008 2008 2008 2008 2008 2008 2008 
2008 2008 2008 2008 2008 2008 2008 2008 2008 
2008 2008 2008 2008 2008 2008 2008 2008 2008 
2008 2008 2008 2008 2008 2008 2008 2008 2008 
2008 2008 2008 2008 2008 2008 2008 2008 2008 
2008 2008 2008 2008 2008 2008 2008 2008 2008 
2008 2008 2008 2008 2008 2008 2008 2008 2008 
2008 2008 2008 2008 2008 2008 2008 2008 2008 
2008 2008 2008 2008 2008 2008 2008 2008 2008 
2008 2008 2008 2008 2008 2008 2008 2008 2008 
2008 2008 2008 2008 2008 2008 2008 2008 2008 
2008 2008 2008 2008 2008 2008 2008 2008 2008 
2008 2008 2008 2008 2008 2008 2008 2008 2008 
2008 2008 2008 2008 2008 2008 2008 2008 2008 
2008 2008 2008 2008 2008 2008 2008 2008 2008 
2008 2008 2008 2008 2008 2008 2008 2008 2008 
2008 2008 2008 2008 2008 2008 2008 2008 2008 
2008 2008 2008 2008 2008 2008 2008 2008 2008 
2008 2008 2008 2008 2008 2008 2008 2008 2008 
2008 2008 2008 2008 2008 2008 2008 2008 2008 
2008 2008 2008 2008 2008 2008 2008 2008 2008 
2008 2008 2008 2008 2008 2008 2008 2008 2008 
2008 2008 2008 2008 2008 2008 2008 2008 2008 
2008 2008 2008 2008 2008 2008 2008 2008 2008 
2008 2008 2008 2008 2008 2008 2008 2008 2008 
2008 2008 2008 2008 2008 2008 2008 2008 2008 
2008 2008 2008 2008 2008 2008 2008 2008 2008 
2008 2008 2008 2008 2008 2008 2008 2008 2008 
2008 2008 2008 2008 2008 2008 2008 2008 2008 
2008 2008 2008 2008 2008 2008 2008 2008 2008 
2008 2008 2008 2008 2008 2008 2008 2008 2008 
2008 2008 2008 2008 2008 2008 2008 2008 2008 
2008 2008 2008 2008 2008 2008 2008 2008 2008 
2008 2008 2008 2008 2008 2008 2008 2008 2008 
2008 2008 2008 2008 2008 2008 2008 2008 2008 
2008 2008 2008 2008 2008 2008 2008 2008 2008 
2008 2008 2008 2008 2008 2008 2008 2008 2008 
2008 2008 2008 2008 2008 2008 2008 2008 2008 
2008 2008 2008 2008 2008 2008 2008 2008 2008 
2008 2008 2008 2008 2008 2008 2008 2008 2008 
2008 2008 2008 2008 2008 2008 2008 2008 2008 
2008 2008 2008 2008 2008 2008 2008 2008 2008 
2008 2008 2008 2008 2008 2008 2008 2008 2008 
2008 2008 2008 2008 2008 2008 2008 2008 2008 
2008 2008 2008 2008 2008 2008 2008 2008 2008 
2008 2008 2008 2008 2008 2008 2008 2008 2008 
2008 2008 2008 2008 2008 2008 2008 2008 2008 
2008 2008 2008 2008 2008 2008 2008 2008 2008 
2008 2008 2008 2008 2008 2008 2008 2008 2008 
2008 2008 2008 2008 2008 2008 2008 2008 2008 
2008 2008 2008 2008 2008 2008 2008 2008 2008 
2008 2008 2008 2008 2008 2008 2008 2008 2008 
2008 2008 2008 2008 2008 2008 2008 2008 2008 
2008 2008 2008 2008 2008 2008 2008 2008 2008 
2008 2008 2008 2008 2008 2008 2008 2008 2008 
2008 2008 2008 2008 2008 2008 2008 2008 2008 
2008 2008 2008 2008 2008 2008 2008 2008 2008 
2008 2008 2008 2008 2008 2008 2008 2008 2008 
2008 2008 2008 2008 2008 2008 2008 2008 2008 
2008 2008 2008 2008 2008 2008 2008 2008 2008 
2008 2008 2008 2008 2008 2008 2008 2008 2008 
2008 2008 2008 2008 2008 2008 2008 2008 2008 
2008 2008 2008 2008 2008 2008 2008 2008 2008 
2008 2008 2008 2008 2008 2008 2008 2008 2008 
2008 2008 2008 2008 2008 2008 2008 2008 2008 
2008 2008 2008 2008 2008 2008 2008 2008 2008 
2008 2008 2008 2008 2008 2008 2008 2008 2008 
2008 2008 2008 2008 2008 2008 2008 2008 2008 
2008 2008 2008 2008 2008 2008 2008 2008 2008 
2008 2008 2008 2008 2008 2008 2008 2008 2008 
2008 2008 2008 2008 2008 2008 2008 2008 2008 
2008 2008 2008 2008 2008 2008 2008 2008 2008 
2008 2008 2008 2008 2008 2008 2008 2008 2008 
2008 2008 2008 2008 2008 2008 2008 2008 2008 
2008 2008 2008 2008 2008 2008 2008 2008 2008 
2008 2008 2008 2008 2008 2008 2008 2008 2008 
2008 2008 2008 2008 2008 2008 2008 2008 2008 
2008 2008 2008 2008 2008 2008 2008 2008 2008 
2008 2008 2008 2008 2008 2008 2008 2008 2008 
2008 2008 2008 2008 2008 2008 2008 2008 2008 
2008 2008 2008 2008 2008 2008 2008 2008 2008 
2008 2008 2008 2008 2008 2008 2008 2008 2008 
2008 2008 2008 2008 2008 2008 2008 2008 2008 
2008 2008 2008 2008 2008 2008 2008 2008 2008 
2008 2008 2008 2008 2008 2008 2008 2008 2008 
2008 2008 2008 2008 2008 2008 2008 2008 2008 
2008 2008 2008 2008 2008 2008 2008 2008 2008 
2008 2008 2008 2008 2008 2008 2008 2008 2008 
2008 2008 2008 2008 2008 2008 2008 2008 2008 
2008 2008 2008 2008 2008 2008 2008 2008 2008 
2008 2008 2008 2008 2008 2008 2008 2008 2008 
2008 2008 2008 2008 2008 2008 2008 2008 2008 
2008 2008 2008 2008 2008 2008 2008 2008 2008 
2008 2008 2008 2008 2008 2008 2008 2008 2008 
2008 2008 2008 2008 2008 2008 2008 2008 2008 
2008 2008 2008 2008 2008 2008 2008 2008 2008 
2008 2008 2008 2008 2008 2008 2008 2008 2008 
2008 2008 2008 2008 2008 2008 2008 2008 2008 
2008 2008 2008 2008 2008 2008 2008 2008 2008 
2008 2008 2008 2008 2008 2008 2008 2008 2008 
2008 2008 2008 2008 2008 2008 2008 2008 2008 
2008 2008 2008 2008 2008 2008 2008 2008 2008 
2008 2008 2008 2008 2008 2008 2008 2008 2008 
2008 2008 2008 2008 2008 2008 2008 2008 2008 
2008 2008 2008 2008 2008 2008 2008 2008 2008 
2008 2008 2008 2008 2008 2008 2008 2008 2008 
2008 2008 2008 2008 2008 2008 2008 2008 2008 
2008 2008 2008 2008 2008 2008 2008 2008 2008 
2008 2008 2008 2008 2008 2008 2008 2008 2008 
2008 2008 2008 2008 2008 2008 2008 2008 2008 
2008 2008 2008 2008 2008 2008 2008 2008 2008 
2008 2008 2008 2008 2008 2008 2008 2008 2008 
2008 2008 2008 2008 2008 2008 2008 2008 2008 
2008 2008 2008 2008 2008 2008 2008 2008 2008 
2008 2008 2008 2008 2008 2008 2008 2008 2008 
2008 2008 2008 2008 2008 2008 2008 2008 2008 
2008 2008 2008 2008 2008 2008 2008 2008 2008 
2008 2008 2008 2008 2008 2008 2008 2008 2008 
2008 2008 2008 2008 2008 2008 2008 2008 2008 
2008 2008 2008 2008 2008 2008 2008 2008 2008 
2008 2008 2008 2008 2008 2008 2008 2008 2008 
2008 2008 2008 2008 2008 2008 2008 2008 2008 
2008 2008 2008 2008 2008 2008 2008 2008 2008 
2008 2008 2008 2008 2008 2008 2008 2008 2008 
2008 2008 2008 2008 2008 2008 2008 2008 2008 
2008 2008 2008 2008 2008 2008 2008 2008 2008 
2008 2008 2008 2008 2008 2008 2008 2008 2008 
2008 2008 2008 2008 2008 2008 2008 2008 2008 
2008 2008 2008 2008 2008 2008 2008 2008 2008 
2008 2008 2008 2008 2008 2008 2008 2008 2008 
2008 2008 2008 2008 2008 2008 2008 2008 2008 
2008 2008 2008 2008 2008 2008 2008 2008 2008 
2008 2008 2008 2008 2008 2008 2008 2008 2008 
2008 2008 2008 2008 2008 2008 2008 2008 2008 
2008 2008 2008 2008 2008 2008 2008 2008 2008 
2008 2008 2008 2008 2008 2008 2008 2008 2008 
2008 2008 2008 2008 2008 2008 2008 2008 2008 
2008 2008 2008 2008 2008 2008 2008 2008 2008 
2008 2008 2008 2008 2008 2008 2008 2008 2008 
2008 2008 2008 2008 2008 2008 2008 2008 2008 
2008 2008 2008 2008 2008 2008 2008 2008 2008 
2008 2008 2008 2008 2008 2008 2008 2008 2008 
2008 2008 2008 2008 2008 2008 2008 2008 2008 
2008 2008 2008 2008 2008 2008 2008 2008 2008 
2008 2008 2008 2008 2008 2008 2008 2008 2008 
2008 2008 2008 2008 2008 2008 2008 2008 2008 
2008 2008 2008 2008 2008 2008 2008 2008 2008 
2008 2008 2008 2008 2008 2008 2008 2008 2008 
2008 2008 2008 2008 2008 2008 2008 2008 2008 
2008 2008 2008 2008 2008 2008 2008 2008 2008 
2008 2008 2008 2008 2008 2008 2008 2008 2008 
2008 2008 2008 2008 2008 2008 2008 2008 2008 
2008 2008 2008 2008 2008 2008 2008 2008 2008 
2008 2008 2008 2008 2008 2008 2008 2008 2008 
2008 2008 2008 2008 2008 2008 2008 2008 2008 
2008 2008 2008 2008 2008 2008 2008 2008 2008 
2008 2008 2008 2008 2008 2008 2008 2008 2008 
2008 2008 2008 2008 2008 2008 2008 2008 2008 
2008 2008 2008 2008 2008 2008 2008 2008 2008 
2008 2008 2008 2008 2008 2008 2008 2008 2008 
2008 2008 2008 2008 2008 2008 2008 2008 2008 
2008 2008 2008 2008 2008 2008 2008 2008 2008 
2008 2008 2008 2008 2008 2008 2008 2008 2008 
2008 2008 2008 2008 2008 2008 2008 2008 2008 
2008 2008 2008 2008 2008 2008 2008 2008 2008 
2008 2008 2008 2008 2008 2008 2008 2008 2008 
2008 2008 2008 2008 2008 2008 2008 2008 2008 
2008 2008 2008 2008 2008 2008 2008 2008 2008 
2008 2008 2008 2008 2008 2008 2008 2008 2008 
2008 2008 2008 2008 2008 2008 2008 2008 2008 
2008 2008 2008 2008 2008 2008 2008 2008 2008 
2008 2008 2008 2008 2008 2008 2008 2008 2008 
2008 2008 2008 2008 2008 2008 2008 2008 2008 
2008 2008 2008 2008 2008 2008 2008 2008 2008 
2008 2008 2008 2008 2008 2008 2008 2008 2008 
2008 2008 2008 2008 2008 2008 2008 2008 2008 
2008 2008 2008 2008 2008 2008 2008 2008 2008 
2008 2008 2008 2008 2008 2008 2008 2008 2008 
2008 2008 2008 2008 2008 2008 2008 2008 2008 
2008 2008 2008 2008 2008 2008 2008 2008 2008 
2008 2008 2008 2008 2008 2008 2008 2008 2008 
2008 2008 2008 2008 2008 2008 2008 2008 2008 
2008 2008 2008 2008 2008 2008 2008 2008 2008 
2008 2008 2008 2008 2008 2008 2008 2008 2008 
2008 2008 2008 2008 2008 2008 2008 2008 2008 
2008 2008 2008 2008 2008 2008 2008 2008 2008 
2008 2008 2008 2008 2008 2008 2008 2008 2008 
2008 2008 2008 2008 2008 2008 2008 2008 2008 
2008 2008 2008 2008 2008 2008 2008 2008 2008 
2008 2008 2008 2008 2008 2008 2008 2008 2008 
2008 2008 2008 2008 2008 2008 2008 2008 2008 
2008 2008 2008 2008 2008 2008 2008 2008 2008 
2008 2008 2008 2008 2008 2008 2008 2008 2008 
2008 2008 2008 2008 2008 2008 2008 2008 2008 
2008 2008 2008 2008 2008 2008 2008 2008 2008 
2008 2008 2008 2008 2008 2008 2008 2008 2008 
2008 2008 2008 2008 2008 2008 2008 2008 2008 
2008 2008 2008 2008 2008 2008 2008 2008 2008 
2008 2008 2008 2008 2008 2008 2008 2008 2008 
2008 2008 2008 2008 2008 2008 2008 2008 2008 
2008 2008 2008 2008 2008 2008 2008 2008 2008 
2008 2008 2008 2008 2008 2008 2008 2008 2008 
2008 2008 2008 2008 2008 2008 2008 2008 2008 
2008 2008 2008 2008 2008 2008 2008 2008 2008 
2008 2008 2008 2008 2008 2008 2008 2008 2008 
2008 2008 2008 2008 2008 2008 2008 2008 2008 
2008 2008 2008 2008 2008 2008 2008 2008 2008 
2008 2008 2008 2008 2008 2008 2008 2008 2008 
2008 2008 2008 2008 2008 2008 2008 2008 2008 
2008 2008 2008 2008 2008 2008 2008 2008 2008 
2008 2008 2008 2008 2008 2008 2008 2008 2008 
2008 2008 2008 2008 2008 2008 2008 2008 2008 
2008 2008 2008 2008 2008 2008 2008 2008 2008 
2008 2008 2008 2008 2008 2008 2008 2008 2008 
2008 2008 2008 2008 2008 2008 2008 2008 2008 
2008 2008 2008 2008 2008 2008 2008 2008 2008 
2008 2008 2008 2008 2008 2008 2008 2008 2008 
2008 2008 2008 2008 2008 2008 2008 2008 2008 
2008 2008 2008 2008 2008 2008 2008 2008 2008 
2008 2008 2008 2008 2008 2008 2008 2008 2008 
2008 2008 2008 2008 2008 2008 2008 2008 2008 
2008 2008 2008 2008 2008 2008 2008 2008 2008 
2008 2008 2008 2008 2008 2008 2008 2008 2008 
2008 2008 2008 2008 2008 2008 2008 2008 2008 
2008 2008 2008 2008 2008 2008 2008 2008 2008 
2008 2008 2008 2008 2008 2008 2008 2008 2008 
2008 2008 2008 2008 2008 2008 2008 2008 2008 
2008 2008 2008 2008 2008 2008 2008 2008 2008 
2008 2008 2008 2008 2008 2008 2008 2008 2008 
2008 2008 2008 2008 2008 2008 2008 2008 2008 
2008 2008 2008 2008 2008 2008 2008 2008 2008 
2008 2008 2008 2008 2008 2008 2008 2008 2008 
2008 2008 2008 2008 2008 2008 2008 2008 2008 
2008 2008 2008 2008 2008 2008 2008 2008 2008 
2008 2008 2008 2008 2008 2008 2008 2008 2008 
2008 2008 2008 2008 2008 2008 2008 2008 2008 
2008 2008 2008 2008 2008 2008 2008 2008 2008 
2008 2008 2008 2008 2008 2008 2008 2008 2008 
2008 2008 2008 2008 2008 2008 2008 2008 2008 
2008 2008 2008 2008 2008 2008 2008 2008 2008 
2008 2008 2008 2008 2008 2008 2008 2008 2008 
2008 2008 2008 2008 2008 2008 2008 2008 2008 
2008 2008 2008 2008 2008 2008 2008 2008 2008 
2008 2008 2008 2008 2008 2008 2008 2008 2008 
2008 2008 2008 2008 2008 2008 2008 2008 2008 
2008 2008 2008 2008 2008 2008 2008 2008 2008 
2008 2008 2008 2008 2008 2008 2008 2008 2008 
2008 2008 2008 2008 2008 2008 2008 2008 2008 
2008 2008 2008 2008 2008 2008 2008 2008 2008 
2008 2008 2008 2008 2008 2008 2008 2008 2008 
2008 2008 2008 2008 2008 2008 2008 2008 2008 
2008 2008 2008 2008 2008 2008 2008 2008 2008 
2008 2008 2008 2008 2008 2008 2008 2008 2008 
2008 2008 2008 2008 2008 2008 2008 2008 2008 
2008 2008 2008 2008 2008 2008 2008 2008 2008 
2008 2008 2008 2008 2008 2008 2008 2008 2008 
2008 2008 2008 2008 2008 2008 2008 2008 2008 
2008 2008 2008 2008 2008 2008 2008 2008 2008 
2008 2008 2008 2008 2008 2008 2008 2008 2008 
2008 2008 2008 2008 2008 2008 2008 2008 2008 
2008 2008 2008 2008 2008 2008 2008 2008 2008 
2008 2008 2008 2008 2008 2008 2008 2008 2008 
2008 2008 2008 2008 2008 2008 2008 2008 2008 
2008 2008 2008 2008 2008 2008 2008 2008 2008 
2008 2008 2008 2008 2008 2008 2008 2008 2008 
2008 2008 2008 2008 2008 2008 2008 2008 2008 
2008 2008 2008 2008 2008 2008 2008 2008 2008 
2008 2008 2008 2008 2008 2008 2008 2008 2008 
2008 2008 2008 2008 2008 2008 2008 2008 2008 
2008 2008 2008 2008 2008 2008 2008 2008 2008 
2008 2008 2008 2008 2008 2008 2008 2008 2008 
2008 2008 2008 2008 2008 2008 2008 2008 2008 
2008 2008 2008 2008 2008 2008 2008 2008 2008 
2008 2008 2008 2008 2008 2008 2008 2008 2008 
2008 2008 2008 2008 2008 2008 2008 2008 2008 
2008 2008 2008 2008 2008 2008 2008 2008 2008 
2008 2008 2008 2008 2008 2008 2008 2008 2008 
2008 2008 2008 2008 2008 2008 2008 2008 2008 
2008 2008 2008 2008 2008 2008 2008 2008 2008 
2008 2008 2008 2008 2008 2008 2008 2008 2008 
2008 2008 2008 2008 2008 2008 2008 2008 2008 
2008 2008 2008 2008 2008 2008 2008 2008 2008 
2008 2008 2008 2008 2008 2008 2008 2008 2008 
2008 2008 2008 2008 2008 2008 2008 2008 2008 
2008 2008 2008 2008 2008 2008 2008 2008 2008 
2008 2008 2008 2008 2008 2008 2008 2008 2008 
2008 2008 2008 2008 2008 2008 2008 2008 2008 
2008 2008 2008 2008 2008 2008 2008 2008 2008 
2008 2008 2008 2008 2008 2008 2008 2008 2008 
2008 2008 2008 2008 2008 2008 2008 2008 2008 
2008 2008 2008 2008 2008 2008 2008 2008 2008 
2008 2008 2008 2008 2008 2008 2008 2008 2008 
2008 2008 2008 2008 2008 2008 2008 2008 2008 
2008 2008 2008 2008 2008 2008 2008 2008 2008 
2008 2008 2008 2008 2008 2008 2008 2008 2008 
2008 2008 2008 2008 2008 2008 2008 2008 2008 
2008 2008 2008 2008 2008 2008 2008 2008 2008 
2008 2008 2008 2008 2008 2008 2008 2008 2008 
2008 2008 2008 2008 2008 2008 2008 2008 2008 
2008 2008 2008 2008 2008 2008 2008 2008 2008 
2008 2008 2008 2008 2008 2008 2008 2008 2008 
2008 2008 2008 2008 2008 2008 2008 2008 2008 
2008 2008 2008 2008 2008 2008 2008 2008 2008 
2008 2008 2008 2008 2008 2008 2008 2008 2008 
2008 2008 2008 2008 2008 2008 2008 2008 2008 
2008 2008 2008 2008 2008 2008 2008 2008 2008 
2008 2008 2008 2008 2008 2008 2008 2008 2008 
2008 2008 2008 2008 2008 2008 2008 2008 2008 
2008 2008 2008 2008 2008 2008 2008 2008 2008 
2008 2008 2008 2008 2008 2008 2008 2008 2008 
2008 2008 2008 2008 2008 2008 2008 2008 2008 
2008 2008 2008 2008 2008 2008 2008 2008 2008 
2008 2008 2008 2008 2008 2008 2008 2008 2008 
2008 2008 2008 2008 2008 2008 2008 2008 2008 
2008 2008 2008 2008 2008 2008 2008 2008 2008 
2008 2008 2008 2008 2008 2008 2008 2008 2008 
2008 2008 2008 2008 2008 2008 2008 2008 2008 
2008 2008 2008 2008 2008 2008 2008 2008 2008 
2008 2008 2008 2008 2008 2008 2008 2008 2008 
2008 2008 2008 2008 2008 2008 2008 2008 2008 
2008 2008 2008 2008 2008 2008 2008 2008 2008 
2008 2008 2008 2008 2008 2008 2008 2008 2008 
2008 2008 2008 2008 2008 2008 2008 2008 2008 
2008 2008 2008 2008 2008 2008 2008 2008 2008 
2008 2008 2008 2008 2008 2008 2008 2008 2008 
2008 2008 2008 2008 2008 2008 2008 2008 2008 
2008 2008 2008 2008 2008 2008 2008 2008 2008 
2008 2008 2008 2008 2008 2008 2008 2008 2008 
2008 2008 2008 2008 2008 2008 2008 2008 2008 
2008 2008 2008 2008 2008 2008 2008 2008 2008 
2008 2008 2008 2008 2008 2008 2008 2008 2008 
2008 2008 2008 2008 2008 2008 2008 2008 2008 
2008 2008 2008 2008 2008 2008 2008 2008 2008 
2008 2008 2008 2008 2008 2008 2008 2008 2008 
2008 2008 2008 2008 2008 2008 2008 2008 2008 
2008 2008 2008 2008 2008 2008 2008 2008 2008 
2008 2008 2008 2008 2008 2008 2008 2008 2008 
2008 2008 2008 2008 2008 2008 2008 2008 2008 
2008 2008 2008 2008 2008 2008 2008 2008 2008 
2008 2008 2008 2008 2008 2008 2008 2008 2008 
2008 2008 2008 2008 2008 2008 2008 2008 2008 
2008 2008 2008 2008 2008 2008 2008 2008 2008 
2008 2008 2008 2008 2008 2008 2008 2008 2008 
2008 2008 2008 2008 2008 2008 2008 2008 2008 
2008 2008 2008 2008 2008 2008 2008 2008 2008 
2008 2008 2008 2008 2008 2008 2008 2008 2008 
2008 2008 2008 2008 2008 2008 2008 2008 2008 
2008 2008 2008 2008 2008 2008 2008 2008 2008 
2008 2008 2008 2008 2008 2008 2008 2008 2008 
2008 2008 2008 2008 2008 2008 2008 2008 2008 
2008 2008 2008 2008 2008 2008 2008 2008 2008 
2008 2008 2008 2008 2008 2008 2008 2008 2008 
2008 2008 2008 2008 2008 2008 2008 2008 2008 
2008 2008 2008 2008 2008 2008 2008 2008 2008 
2008 2008 2008 2008 2008 2008 2008 2008 2008 
2008 2008 2008 2008 2008 2008 2008 2008 2008 
2008 2008 2008 2008 2008 2008 2008 2008 2008 
2008 2008 2008 2008 2008 2008 2008 2008 2008 
2008 2008 2008 2008 2008 2008 2008 2008 2008 
2008 2008 2008 2008 2008 2008 2008 2008 2008 
2008 2008 2008 2008 2008 2008 2008 2008 2008 
2008 2008 2008 2008 2008 2008 2008 2008 2008 
2008 2008 2008 2008 2008 2008 2008 2008 2008 
2008 2008 2008 2008 2008 2008 2008 2008 2008 
2008 2008 2008 2008 2008 2008 2008 2008 2008 
2008 2008 2008 2008 2008 2008 2008 2008 2008 
2008 2008 2008 2008 2008 2008 2008 2008 2008 
2008 2008 2008 2008 2008 2008 2008 2008 2008 
2008 2008 2008 2008 2008 2008 2008 2008 2008 
2008 2008 2008 2008 2008 2008 2008 2008 2008 
2008 2008 2008 2008 2008 2008 2008 2008 2008 
2008 2008 2008 2008 2008 2008 2008 2008 2008 
2008 2008 2008 2008 2008 2008 2008 2008 2008 
2008 2008 2008 2008 2008 2008 2008 2008 2008 
2008 2008 2008 2008 2008 2008 2008 2008 2008 