# vtk DataFile Version 4.0
vtk output
ASCII
DATASET POLYDATA
POINTS 17788 float
-65.0655 -9.25919 12.8233 -64.9212 -9.67348 13.2328 -64.7342 -9.46143 12.7525 
-65.4357 -9.63274 13.1663 -65.0119 -9.21878 12.0151 -64.5015 -9.58729 11.8574 
-65.5127 -9.39882 12.2811 -63.219 -9.22596 10.698 -62.8825 -9.65065 11.3804 
-62.6423 -9.62155 10.9058 -63.3807 -9.55266 11.1304 -64.9179 -9.1947 10.8077 
-64.3346 -9.37628 10.8469 -65.5173 -9.42711 11.2276 -63.1208 -9.16395 10.0002 
-62.6332 -9.82654 9.92428 -63.8226 -9.36402 10.6718 -64.1509 -9.04208 10.0363 
-65.0377 -9.10993 9.72086 -65.5384 -9.57402 10.0219 -63.1112 -9.37463 9.32476 
-63.4846 -9.42179 8.87853 -63.791 -9.12301 9.16987 -64.7146 -9.14166 9.00883 
-65.3656 -9.58071 8.95131 -64.0551 -9.61185 8.4798 -65.0365 -9.62526 8.35662 
-65.9231 -10.2148 13.7396 -65.9716 -10.7581 14.2539 -65.6466 -10.6091 14.0665 
-66.3037 -10.796 14.0401 -65.1494 -10.5365 13.5322 -64.4992 -10.2036 12.8361 
-66.0276 -9.92087 12.7491 -66.4057 -10.6529 13.2662 -63.3129 -10.088 11.8517 
-62.9101 -10.863 12.3875 -62.5005 -10.4864 11.6891 -64.0248 -10.0821 12.1038 
-63.8609 -10.6421 12.5135 -66.0288 -9.9259 11.6848 -66.4254 -10.6386 12.2332 
-62.444 -10.3451 10.8383 -63.9213 -9.72534 11.309 -66.0007 -10.01 10.6457 
-66.514 -10.7689 11.0799 -62.3278 -10.6567 9.9806 -65.9246 -10.1869 9.82715 
-66.3173 -10.693 9.923 -63.0621 -9.83648 8.976 -62.5369 -10.3705 9.20372 
-65.7435 -10.2267 9.12229 -66.0106 -10.5328 9.41896 -62.9998 -10.5 8.43993 
-63.9416 -10.1551 7.97998 -63.5009 -10.5313 7.94714 -64.7398 -10.0605 7.86161 
-65.565 -10.5098 8.03016 -64.0585 -10.6431 7.50458 -65.0112 -10.6256 7.36934 
-66.1283 -11.34 14.2202 -65.639 -11.3597 14.0041 -66.35 -11.6167 13.6857 
-64.9816 -11.6564 13.4628 -64.3416 -11.4837 12.7484 -66.5445 -11.4145 12.8467 
-62.1078 -11.1531 12.1392 -62.0723 -11.6381 12.3809 -61.7188 -11.8334 11.8042 
-62.9583 -11.6231 12.4173 -63.7242 -11.2601 12.514 -66.6984 -11.6042 12.0844 
-62.0373 -11.3721 11.6311 -62.2397 -11.1817 10.8999 -66.9187 -11.4207 11.3472 
-66.901 -11.2693 10.7787 -67.3055 -11.8798 10.9769 -61.944 -11.1838 9.86829 
-61.9277 -11.7194 10.5475 -61.5586 -11.6759 9.89172 -66.7794 -11.2293 10.2087 
-67.038 -11.5182 10.4316 -61.1483 -11.1916 8.95847 -61.1187 -11.7339 9.4013 
-60.4412 -11.6223 8.98215 -61.9297 -10.9798 8.8515 -66.1698 -10.8343 8.92873 
-66.7941 -11.2933 9.44162 -66.7146 -11.2854 8.67558 -67.3406 -11.8322 8.99901 
-60.2388 -11.2719 8.16441 -59.7922 -11.5302 8.32628 -59.6761 -11.4822 7.88299 
-60.9087 -11.2393 8.07163 -61.5427 -11.468 8.08854 -62.2498 -11.3653 8.24666 
-63.0324 -11.0447 7.96026 -62.5623 -11.6418 7.8186 -66.185 -11.1052 8.15487 
-66.6276 -11.6831 7.86499 -67.0591 -11.6781 8.36959 -59.0234 -11.347 6.92196 
-58.8025 -11.4863 7.16642 -58.6585 -11.6278 6.70448 -60.1544 -11.5577 7.50737 
-59.254 -11.5174 7.07714 -61.0386 -11.6282 7.58845 -63.2429 -11.3552 7.41869 
-63.9202 -11.171 7.00541 -63.4189 -11.6801 6.90558 -64.7023 -11.0819 6.91793 
-65.464 -11.2346 7.07698 -66.0375 -11.5023 7.41256 -59.2934 -11.6915 6.67914 
-64.2082 -11.7535 6.5911 -65.2361 -11.773 6.60107 -39.9073 -12.2057 15.7506 
-39.9358 -12.6814 16.242 -39.4943 -12.4344 15.8981 -40.3156 -12.7336 16.0892 
-65.4002 -12.1999 15.8854 -65.1736 -12.5738 16.3902 -64.5688 -12.6014 15.9372 
-66.1085 -12.2342 15.7608 -65.7787 -12.5783 16.2912 -66.2899 -12.6073 15.7789 
-39.2316 -12.2015 15.2615 -38.9704 -12.8185 15.4697 -38.7697 -12.7369 14.7283 
-39.757 -12.1554 15.0379 -40.4922 -12.6316 15.3695 -64.8804 -12.1062 14.9386 
-64.2726 -12.3714 14.8777 -65.7478 -12.0978 15.0005 -66.2821 -12.3988 15.185 
-39.3301 -12.4295 14.5395 -40.0947 -12.5033 14.6624 -64.2216 -12.1722 14.0705 
-63.7523 -12.6435 14.4056 -63.6779 -12.4996 13.6541 -65.1445 -12.1212 13.9648 
-66.0167 -11.8461 14.0114 -65.9162 -12.4265 14.5006 -65.7675 -12.8527 14.1775 
-38.3436 -12.1949 12.8972 -37.9578 -12.7188 13.2243 -37.7189 -12.7158 12.6867 
-39.0206 -12.1849 12.7144 -38.6602 -12.6308 13.4098 -39.3846 -12.6587 12.8499 
-64.1647 -12.0832 13.2184 -63.6509 -12.823 13.0324 -65.8131 -12.2359 13.7078 
-66.52 -12.3383 13.0652 -38.1259 -12.3284 12.3654 -38.3636 -12.5972 11.8337 
-38.7606 -12.1912 12.1841 -39.2942 -12.4504 12.1468 -62.106 -12.5002 12.3642 
-61.59 -12.4042 12.0388 -63.0655 -12.1558 11.9629 -62.5562 -12.9181 12.0849 
-63.9396 -11.9214 11.9798 -64.0315 -12.427 12.5642 -64.2797 -12.5749 12.0394 
-66.9322 -12.41 12.397 -67.0638 -11.9895 11.7856 -67.367 -12.5172 11.9019 
-38.9164 -12.8122 11.6508 -61.9001 -11.8413 11.1713 -61.4638 -12.4574 10.9504 
-63.1629 -12.5144 11.5051 -64.0063 -12.1346 10.929 -63.4988 -12.6044 10.8001 
-64.6045 -12.6652 11.2485 -67.7494 -12.5372 11.192 -60.0626 -12.2121 9.67889 
-60.0611 -12.5356 10.1142 -59.6297 -12.4766 9.87107 -60.3344 -12.5558 10.0069 
-61.2683 -12.2924 9.92726 -64.0116 -12.1945 10.1311 -63.7389 -12.8103 10.0219 
-64.8676 -12.3446 10.4747 -64.6773 -12.171 9.95771 -65.282 -12.6913 10.1426 
-67.3672 -11.8436 9.94704 -67.8511 -12.3493 10.4454 -67.9314 -12.3189 9.91978 
-68.2877 -12.8858 10.0515 -57.2313 -12.1588 8.87256 -57.0993 -12.8123 9.28458 
-56.6652 -12.4272 8.77913 -58.1984 -12.1238 8.88684 -57.955 -12.6573 9.36412 
-59.197 -12.1498 9.20883 -59.0427 -12.7022 9.5282 -59.7299 -11.8238 8.87463 
-60.6653 -12.5866 9.7026 -64.3703 -12.5589 9.57516 -65.0373 -12.6758 9.60651 
-67.935 -12.4764 9.36692 -67.739 -12.3905 8.80649 -57.0343 -12.1303 8.10562 
-56.5085 -12.7356 8.06001 -57.7332 -11.9162 8.15774 -59.0661 -11.7503 7.89219 
-61.847 -11.857 7.60721 -67.03 -11.9704 7.95031 -67.5381 -12.5326 8.05528 
-57.2113 -12.6212 7.53365 -57.5148 -12.6628 6.75941 -57.8725 -11.9199 7.11911 
-59.9385 -11.8241 6.86088 -60.9629 -11.9125 7.01114 -61.7637 -12.1932 6.71935 
-62.6459 -12.0114 7.11494 -65.8885 -11.9438 6.81167 -66.5343 -12.5498 6.88157 
-67.022 -12.4943 7.42333 -57.239 -12.2324 6.13993 -56.9646 -12.5796 6.27003 
-56.4974 -12.7315 5.98289 -58.0191 -12.1098 6.03047 -58.8742 -12.6248 6.35738 
-58.3295 -12.4695 5.89298 -59.9395 -12.2365 6.42039 -60.5424 -12.7909 6.13544 
-60.87 -12.2218 6.2402 -61.5738 -12.4647 6.03222 -62.2882 -12.5299 6.34158 
-63.2598 -12.3707 6.45346 -64.1612 -12.4855 6.25959 -65.0323 -12.395 6.26839 
-65.9048 -12.5249 6.38114 -57.064 -12.6387 5.51586 -57.7651 -12.7826 5.59154 
-61.2348 -12.7432 5.66882 -63.1739 -13.2563 25.032 -63.0699 -13.788 25.2898 
-62.715 -13.6926 24.9212 -63.7479 -13.2224 24.9082 -63.8719 -13.5375 25.2895 
-64.4486 -13.7099 24.8555 -63.2482 -13.5662 24.6903 -63.8784 -13.5387 24.6774 
-64.2489 -13.2327 16.7855 -64.0686 -13.6699 17.2542 -63.5913 -13.6419 16.9225 
-64.4718 -13.8688 16.8693 -40.1616 -13.2595 16.241 -39.5541 -13.383 15.8966 
-40.6015 -13.3603 15.8142 -63.8331 -13.0536 16.0019 -63.3458 -13.4017 15.8821 
-65.0983 -13.1815 16.4582 -65.913 -13.0287 16.0215 -65.5724 -13.4403 15.7538 
-38.6939 -13.7009 15.4367 -38.4449 -13.3862 14.852 -41.032 -13.3484 15.265 
-40.9205 -13.0547 14.6398 -41.3274 -13.7818 14.6873 -63.3137 -13.1944 14.997 
-62.8227 -13.6967 15.4084 -62.8234 -13.7579 14.8316 -63.9488 -12.7266 15.2159 
-66.043 -12.9404 15.1205 -65.5306 -13.5349 14.9669 -39.1616 -12.8156 13.8443 
-38.4528 -13.1996 14.1087 -40.0274 -12.8359 14.0755 -40.7922 -13.2237 13.7801 
-41.4079 -13.6825 13.9675 -62.9977 -13.5764 14.54 -63.3203 -13.3588 13.9379 
-65.722 -13.7399 14.4808 -66.3384 -13.0323 13.7595 -67.2073 -13.2714 13.6885 
-66.6341 -13.5668 14.3753 -67.4118 -13.5878 14.1365 -37.9054 -13.3398 13.4998 
-37.3989 -13.5883 12.7624 -39.9766 -13.1304 13.1178 -40.6415 -13.4666 13.1416 
-41.0851 -13.5089 13.5046 -63.5573 -13.8228 13.008 -67.1318 -12.9161 12.881 
-67.8743 -13.4689 13.5625 -67.8933 -13.2636 12.9162 -68.3877 -13.5787 13.0562 
-37.8602 -12.8577 12.0687 -37.6006 -13.5802 12.0304 -39.5737 -13.1751 12.0548 
-40.2183 -13.5646 12.5169 -62.0137 -13.4014 12.2729 -61.4588 -13.2695 11.899 
-62.4551 -13.6429 11.9622 -63.955 -13.2829 12.3879 -64.4926 -13.6825 11.8081 
-67.932 -13.041 11.8657 -68.5457 -13.5219 12.2015 -38.195 -13.3157 11.5652 
-38.9064 -13.6393 11.3987 -61.0047 -13.3125 11.1006 -61.0819 -13.7428 11.4478 
-60.7999 -13.5871 10.7789 -62.9783 -13.2382 11.4806 -63.3062 -13.397 10.6431 
-65.1076 -13.5847 11.3005 -65.1597 -12.8836 10.7611 -65.5726 -13.4764 10.7435 
-68.1225 -12.8651 10.8676 -68.5557 -13.5253 10.9234 -60.014 -12.7827 9.90267 
-60.9627 -13.0254 10.3052 -60.6912 -13.5131 10.0952 -63.6013 -13.5065 9.82068 
-65.6344 -13.5751 9.81795 -68.5405 -13.5588 9.96665 -56.9518 -13.8226 9.35098 
-56.3914 -13.1209 8.84323 -57.9769 -13.5565 9.45415 -58.8122 -13.3738 9.47183 
-59.9438 -13.5055 9.5491 -64.156 -13.3384 9.35027 -64.9213 -13.3653 9.26813 
-68.056 -12.9265 8.58138 -68.4166 -13.4844 9.19475 -56.0135 -13.1246 8.09067 
-55.794 -13.5143 8.41336 -55.5043 -13.6567 7.60515 -68.0478 -13.143 7.98552 
-68.3362 -13.6902 8.21362 -56.1508 -13.1475 7.04588 -55.536 -13.5139 6.72403 
-56.9242 -13.6168 7.43119 -56.6188 -13.8537 6.686 -57.7572 -13.3053 7.3407 
-58.1932 -13.0109 6.83563 -58.3861 -13.5798 6.94013 -59.8731 -13.0327 6.7135 
-59.7329 -13.6149 6.96908 -59.9589 -13.7236 7.27496 -60.2825 -13.5664 6.90239 
-67.0269 -13.0595 6.89652 -67.3985 -13.3219 7.10023 -67.979 -13.7141 7.51918 
-55.8109 -13.1589 6.10395 -55.5827 -13.8727 5.97886 -56.9945 -13.1701 6.34375 
-57.9935 -12.8764 6.17522 -57.435 -13.3858 5.79437 -58.6808 -13.737 5.94271 
-58.961 -13.1896 5.91624 -59.4325 -13.6287 6.10102 -60.593 -13.757 6.08369 
-61.8841 -12.8426 5.79186 -62.6848 -13.0111 5.90011 -63.6977 -13.0178 5.92713 
-64.731 -13.0047 5.88862 -65.696 -13.0913 5.88715 -66.4146 -13.3598 6.08351 
-67.0006 -13.7192 6.49314 -56.1731 -13.3368 5.49727 -56.8666 -13.6251 5.47498 
-58.9815 -13.4905 5.61937 -61.1165 -13.4804 5.54147 -62.0515 -13.4904 5.49351 
-63.217 -13.6724 5.54557 -64.2878 -13.6711 5.53739 -65.3171 -13.6981 5.5174 
-66.0735 -13.7836 5.61675 -63.2262 -14.7488 25.2968 -62.7213 -14.2898 25.0498 
-63.8022 -14.3226 25.5072 -65.3225 -14.1103 24.6969 -64.6957 -14.4482 25.448 
-65.4801 -14.546 25.1298 -54.0509 -14.2932 23.9416 -53.945 -14.6353 24.1193 
[...]
CELL_DATA 35632
SCALARS scalars float
LOOKUP_TABLE default
1022 1022 1022 1022 1022 1022 1022 1022 1022 
1022 1022 1022 1022 1022 1022 1022 1022 1022 
1022 1022 1022 1022 1022 1022 1022 1022 1022 
1022 1022 1022 1022 1022 1022 1022 1022 1022 
1022 1022 1022 1022 1022 1022 1022 1022 1022 
1022 1022 1022 1022 1022 1022 1022 1022 1022 
1022 1022 1022 1022 1022 1022 1022 1022 1022 
1022 1022 1022 1022 1022 1022 1022 1022 1022 
1022 1022 1022 1022 1022 1022 1022 1022 1022 
1022 1022 1022 1022 1022 1022 1022 1022 1022 
1022 1022 1022 1022 1022 1022 1022 1022 1022 
1022 1022 1022 1022 1022 1022 1022 1022 1022 
1022 1022 1022 1022 1022 1022 1022 1022 1022 
1022 1022 1022 1022 1022 1022 1022 1022 1022 
1022 1022 1022 1022 1022 1022 1022 1022 1022 
1022 1022 1022 1022 1022 1022 1022 1022 1022 
1022 1022 1022 1022 1022 1022 1022 1022 1022 
1022 1022 1022 1022 1022 1022 1022 1022 1022 
1022 1022 1022 1022 1022 1022 1022 1022 1022 
1022 1022 1022 1022 1022 1022 1022 1022 1022 
1022 1022 1022 1022 1022 1022 1022 1022 1022 
1022 1022 1022 1022 1022 1022 1022 1022 1022 
1022 1022 1022 1022 1022 1022 1022 1022 1022 
1022 1022 1022 1022 1022 1022 1022 1022 1022 
1022 1022 1022 1022 1022 1022 1022 1022 1022 
1022 1022 1022 1022 1022 1022 1022 1022 1022 
1022 1022 1022 1022 1022 1022 1022 1022 1022 
1022 1022 1022 1022 1022 1022 1022 1022 1022 
1022 1022 1022 1022 1022 1022 1022 1022 1022 
1022 1022 1022 1022 1022 1022 1022 1022 1022 
1022 1022 1022 1022 1022 1022 1022 1022 1022 
1022 1022 1022 1022 1022 1022 1022 1022 1022 
1022 1022 1022 1022 1022 1022 1022 1022 1022 
1022 1022 1022 1022 1022 1022 1022 1022 1022 
1022 1022 1022 1022 1022 1022 1022 1022 1022 
1022 1022 1022 1022 1022 1022 1022 1022 1022 
1022 1022 1022 1022 1022 1022 1022 1022 1022 
1022 1022 1022 1022 1022 1022 1022 1022 1022 
1022 1022 1022 1022 1022 1022 1022 1022 1022 
1022 1022 1022 1022 1022 1022 1022 1022 1022 
1022 1022 1022 1022 1022 1022 1022 1022 1022 
1022 1022 1022 1022 1022 1022 1022 1022 1022 
1022 1022 1022 1022 1022 1022 1022 1022 1022 
1022 1022 1022 1022 1022 1022 1022 1022 1022 
1022 1022 1022 1022 1022 1022 1022 1022 1022 
1022 1022 1022 1022 1022 1022 1022 1022 1022 
1022 1022 1022 1022 1022 1022 1022 1022 1022 
1022 1022 1022 1022 1022 1022 1022 1022 1022 
1022 1022 1022 1022 1022 1022 1022 1022 1022 
1022 1022 1022 1022 1022 1022 1022 1022 1022 
1022 1022 1022 1022 1022 1022 1022 1022 1022 
1022 1022 1022 1022 1022 1022 1022 1022 1022 
1022 1022 1022 1022 1022 1022 1022 1022 1022 
1022 1022 1022 1022 1022 1022 1022 1022 1022 
1022 1022 1022 1022 1022 1022 1022 1022 1022 
1022 1022 1022 1022 1022 1022 1022 1022 1022 
1022 1022 1022 1022 1022 1022 1022 1022 1022 
1022 1022 1022 1022 1022 1022 1022 1022 1022 
1022 1022 1022 1022 1022 1022 1022 1022 1022 
1022 1022 1022 1022 1022 1022 1022 1022 1022 
1022 1022 1022 1022 1022 1022 1022 1022 1022 
1022 1022 1022 1022 1022 1022 1022 1022 1022 
1022 1022 1022 1022 1022 1022 1022 1022 1022 
1022 1022 1022 1022 1022 1022 1022 1022 1022 
1022 1022 1022 1022 1022 1022 1022 1022 1022 
1022 1022 1022 1022 1022 1022 1022 1022 1022 
1022 1022 1022 1022 1022 1022 1022 1022 1022 
1022 1022 1022 1022 1022 1022 1022 1022 1022 
1022 1022 1022 1022 1022 1022 1022 1022 1022 
1022 1022 1022 1022 1022 1022 1022 1022 1022 
1022 1022 1022 1022 1022 1022 1022 1022 1022 
1022 1022 1022 1022 1022 1022 1022 1022 1022 
1022 1022 1022 1022 1022 1022 1022 1022 1022 
1022 1022 1022 1022 1022 1022 1022 1022 1022 
1022 1022 1022 1022 1022 1022 1022 1022 1022 
1022 1022 1022 1022 1022 1022 1022 1022 1022 
1022 1022 1022 1022 1022 1022 1022 1022 1022 
1022 1022 1022 1022 1022 1022 1022 1022 1022 
1022 1022 1022 1022 1022 1022 1022 1022 1022 
1022 1022 1022 1022 1022 1022 1022 1022 1022 
1022 1022 1022 1022 1022 1022 1022 1022 1022 
1022 1022 1022 1022 1022 1022 1022 1022 1022 
1022 1022 1022 1022 1022 1022 1022 1022 1022 
1022 1022 1022 1022 1022 1022 1022 1022 1022 
1022 1022 1022 1022 1022 1022 1022 1022 1022 
1022 1022 1022 1022 1022 1022 1022 1022 1022 
1022 1022 1022 1022 1022 1022 1022 1022 1022 
1022 1022 1022 1022 1022 1022 1022 1022 1022 
1022 1022 1022 1022 1022 1022 1022 1022 1022 
1022 1022 1022 1022 1022 1022 1022 1022 1022 
1022 1022 1022 1022 1022 1022 1022 1022 1022 
1022 1022 1022 1022 1022 1022 1022 1022 1022 
1022 1022 1022 1022 1022 1022 1022 1022 1022 
1022 1022 1022 1022 1022 1022 1022 1022 1022 
1022 1022 1022 1022 1022 1022 1022 1022 1022 
1022 1022 1022 1022 1022 1022 1022 1022 1022 
1022 1022 1022 1022 1022 1022 1022 1022 1022 
1022 1022 1022 1022 1022 1022 1022 1022 1022 
1022 1022 1022 1022 1022 1022 1022 1022 1022 
1022 1022 1022 1022 1022 1022 1022 1022 1022 
1022 1022 1022 1022 1022 1022 1022 1022 1022 
1022 1022 1022 1022 1022 1022 1022 1022 1022 
1022 1022 1022 1022 1022 1022 1022 1022 1022 
1022 1022 1022 1022 1022 1022 1022 1022 1022 
1022 1022 1022 1022 1022 1022 1022 1022 1022 
1022 1022 1022 1022 1022 1022 1022 1022 1022 
1022 1022 1022 1022 1022 1022 1022 1022 1022 
1022 1022 1022 1022 1022 1022 1022 1022 1022 
1022 1022 1022 1022 1022 1022 1022 1022 1022 
1022 1022 1022 1022 1022 1022 1022 1022 1022 
1022 1022 1022 1022 1022 1022 1022 1022 1022 
1022 1022 1022 1022 1022 1022 1022 1022 1022 
1022 1022 1022 1022 1022 1022 1022 1022 1022 
1022 1022 1022 1022 1022 1022 1022 1022 1022 
1022 1022 1022 1022 1022 1022 1022 1022 1022 
1022 1022 1022 1022 1022 1022 1022 1022 1022 
1022 1022 1022 1022 1022 1022 1022 1022 1022 
1022 1022 1022 1022 1022 1022 1022 1022 1022 
1022 1022 1022 1022 1022 1022 1022 1022 1022 
1022 1022 1022 1022 1022 1022 1022 1022 1022 
1022 1022 1022 1022 1022 1022 1022 1022 1022 
1022 1022 1022 1022 1022 1022 1022 1022 1022 
1022 1022 1022 1022 1022 1022 1022 1022 1022 
1022 1022 1022 1022 1022 1022 1022 1022 1022 
1022 1022 1022 1022 1022 1022 1022 1022 1022 
1022 1022 1022 1022 1022 1022 1022 1022 1022 
1022 1022 1022 1022 1022 1022 1022 1022 1022 
1022 1022 1022 1022 1022 1022 1022 1022 1022 
1022 1022 1022 1022 1022 1022 1022 1022 1022 
1022 1022 1022 1022 1022 1022 1022 1022 1022 
1022 1022 1022 1022 1022 1022 1022 1022 1022 
1022 1022 1022 1022 1022 1022 1022 1022 1022 
1022 1022 1022 1022 1022 1022 1022 1022 1022 
1022 1022 1022 1022 1022 1022 1022 1022 1022 
1022 1022 1022 1022 1022 1022 1022 1022 1022 
1022 1022 1022 1022 1022 1022 1022 1022 1022 
1022 1022 1022 1022 1022 1022 1022 1022 1022 
1022 1022 1022 1022 1022 1022 1022 1022 1022 
1022 1022 1022 1022 1022 1022 1022 1022 1022 
1022 1022 1022 1022 1022 1022 1022 1022 1022 
1022 1022 1022 1022 1022 1022 1022 1022 1022 
1022 1022 1022 1022 1022 1022 1022 1022 1022 
1022 1022 1022 1022 1022 1022 1022 1022 1022 
1022 1022 1022 1022 1022 1022 1022 1022 1022 
1022 1022 1022 1022 1022 1022 1022 1022 1022 
1022 1022 1022 1022 1022 1022 1022 1022 1022 
1022 1022 1022 1022 1022 1022 1022 1022 1022 
1022 1022 1022 1022 1022 1022 1022 1022 1022 
1022 1022 1022 1022 1022 1022 1022 1022 1022 
1022 1022 1022 1022 1022 1022 1022 1022 1022 
1022 1022 1022 1022 1022 1022 1022 1022 1022 
1022 1022 1022 1022 1022 1022 1022 1022 1022 
1022 1022 1022 1022 1022 1022 1022 1022 1022 
1022 1022 1022 1022 1022 1022 1022 1022 1022 
1022 1022 1022 1022 1022 1022 1022 1022 1022 
1022 1022 1022 1022 1022 1022 1022 1022 1022 
1022 1022 1022 1022 1022 1022 1022 1022 1022 
1022 1022 1022 1022 1022 1022 1022 1022 1022 
1022 1022 1022 1022 1022 1022 1022 1022 1022 
1022 1022 1022 1022 1022 1022 1022 1022 1022 
1022 1022 1022 1022 1022 1022 1022 1022 1022 
1022 1022 1022 1022 1022 1022 1022 1022 1022 
1022 1022 1022 1022 1022 1022 1022 1022 1022 
1022 1022 1022 1022 1022 1022 1022 1022 1022 
1022 1022 1022 1022 1022 1022 1022 1022 1022 
1022 1022 1022 1022 1022 1022 1022 1022 1022 
1022 1022 1022 1022 1022 1022 1022 1022 1022 
1022 1022 1022 1022 1022 1022 1022 1022 1022 
1022 1022 1022 1022 1022 1022 1022 1022 1022 
1022 1022 1022 1022 1022 1022 1022 1022 1022 
1022 1022 1022 1022 1022 1022 1022 1022 1022 
1022 1022 1022 1022 1022 1022 1022 1022 1022 
1022 1022 1022 1022 1022 1022 1022 1022 1022 
1022 1022 1022 1022 1022 1022 1022 1022 1022 
1022 1022 1022 1022 1022 1022 1022 1022 1022 
1022 1022 1022 1022 1022 1022 1022 1022 1022 
1022 1022 1022 1022 1022 1022 1022 1022 1022 
1022 1022 1022 1022 1022 1022 1022 1022 1022 
1022 1022 1022 1022 1022 1022 1022 1022 1022 
1022 1022 1022 1022 1022 1022 1022 1022 1022 
1022 1022 1022 1022 1022 1022 1022 1022 1022 
1022 1022 1022 1022 1022 1022 1022 1022 1022 
1022 1022 1022 1022 1022 1022 1022 1022 1022 
1022 1022 1022 1022 1022 1022 1022 1022 1022 
1022 1022 1022 1022 1022 1022 1022 1022 1022 
1022 1022 1022 1022 1022 1022 1022 1022 1022 
1022 1022 1022 1022 1022 1022 1022 1022 1022 
1022 1022 1022 1022 1022 1022 1022 1022 1022 
1022 1022 1022 1022 1022 1022 1022 1022 1022 
1022 1022 1022 1022 1022 1022 1022 1022 1022 
1022 1022 1022 1022 1022 1022 1022 1022 1022 
1022 1022 1022 1022 1022 1022 1022 1022 1022 
1022 1022 1022 1022 1022 1022 1022 1022 1022 
1022 1022 1022 1022 1022 1022 1022 1022 1022 
1022 1022 1022 1022 1022 1022 1022 1022 1022 
1022 1022 1022 1022 1022 1022 1022 1022 1022 
1022 1022 1022 1022 1022 1022 1022 1022 1022 
1022 1022 1022 1022 1022 1022 1022 1022 1022 
1022 1022 1022 1022 1022 1022 1022 1022 1022 
1022 1022 1022 1022 1022 1022 1022 1022 1022 
1022 1022 1022 1022 1022 1022 1022 1022 1022 
1022 1022 1022 1022 1022 1022 1022 1022 1022 
1022 1022 1022 1022 1022 1022 1022 1022 1022 
1022 1022 1022 1022 1022 1022 1022 1022 1022 
1022 1022 1022 1022 1022 1022 1022 1022 1022 
1022 1022 1022 1022 1022 1022 1022 1022 1022 
1022 1022 1022 1022 1022 1022 1022 1022 1022 
1022 1022 1022 1022 1022 1022 1022 1022 1022 
1022 1022 1022 1022 1022 1022 1022 1022 1022 
1022 1022 1022 1022 1022 1022 1022 1022 1022 
1022 1022 1022 1022 1022 1022 1022 1022 1022 
1022 1022 1022 1022 1022 1022 1022 1022 1022 
1022 1022 1022 1022 1022 1022 1022 1022 1022 
1022 1022 1022 1022 1022 1022 1022 1022 1022 
1022 1022 1022 1022 1022 1022 1022 1022 1022 
1022 1022 1022 1022 1022 1022 1022 1022 1022 
1022 1022 1022 1022 1022 1022 1022 1022 1022 
1022 1022 1022 1022 1022 1022 1022 1022 1022 
1022 1022 1022 1022 1022 1022 1022 1022 1022 
1022 1022 1022 1022 1022 1022 1022 1022 1022 
1022 1022 1022 1022 1022 1022 1022 1022 1022 
1022 1022 1022 1022 1022 1022 1022 1022 1022 
1022 1022 1022 1022 1022 1022 1022 1022 1022 
1022 1022 1022 1022 1022 1022 1022 1022 1022 
1022 1022 1022 1022 1022 1022 1022 1022 1022 
1022 1022 1022 1022 1022 1022 1022 1022 1022 
1022 1022 1022 1022 1022 1022 1022 1022 1022 
1022 1022 1022 1022 1022 1022 1022 1022 1022 
1022 1022 1022 1022 1022 1022 1022 1022 1022 
1022 1022 1022 1022 1022 1022 1022 1022 1022 
1022 1022 1022 1022 1022 1022 1022 1022 1022 
1022 1022 1022 1022 1022 1022 1022 1022 1022 
1022 1022 1022 1022 1022 1022 1022 1022 1022 
1022 1022 1022 1022 1022 1022 1022 1022 1022 
1022 1022 1022 1022 1022 1022 1022 1022 1022 
1022 1022 1022 1022 1022 1022 1022 1022 1022 
1022 1022 1022 1022 1022 1022 1022 1022 1022 
1022 1022 1022 1022 1022 1022 1022 1022 1022 
1022 1022 1022 1022 1022 1022 1022 1022 1022 
1022 1022 1022 1022 1022 1022 1022 1022 1022 
1022 1022 1022 1022 1022 1022 1022 1022 1022 
1022 1022 1022 1022 1022 1022 1022 1022 1022 
1022 1022 1022 1022 1022 1022 1022 1022 1022 
1022 1022 1022 1022 1022 1022 1022 1022 1022 
1022 1022 1022 1022 1022 1022 1022 1022 1022 
1022 1022 1022 1022 1022 1022 1022 1022 1022 
1022 1022 1022 1022 1022 1022 1022 1022 1022 
1022 1022 1022 1022 1022 1022 1022 1022 1022 
1022 1022 1022 1022 1022 1022 1022 1022 1022 
1022 1022 1022 1022 1022 1022 1022 1022 1022 
1022 1022 1022 1022 1022 1022 1022 1022 1022 
1022 1022 1022 1022 1022 1022 1022 1022 1022 
1022 1022 1022 1022 1022 1022 1022 1022 1022 
1022 1022 1022 1022 1022 1022 1022 1022 1022 
1022 1022 1022 1022 1022 1022 1022 1022 1022 
1022 1022 1022 1022 1022 1022 1022 1022 1022 
1022 1022 1022 1022 1022 1022 1022 1022 1022 
1022 1022 1022 1022 1022 1022 1022 1022 1022 
1022 1022 1022 1022 1022 1022 1022 1022 1022 
1022 1022 1022 1022 1022 1022 1022 1022 1022 
1022 1022 1022 1022 1022 1022 1022 1022 1022 
1022 1022 1022 1022 1022 1022 1022 1022 1022 
1022 1022 1022 1022 1022 1022 1022 1022 1022 
1022 1022 1022 1022 1022 1022 1022 1022 1022 
1022 1022 1022 1022 1022 1022 1022 1022 1022 
1022 1022 1022 1022 1022 1022 1022 1022 1022 
1022 1022 1022 1022 1022 1022 1022 1022 1022 
1022 1022 1022 1022 1022 1022 1022 1022 1022 
1022 1022 1022 1022 1022 1022 1022 1022 1022 
1022 1022 1022 1022 1022 1022 1022 1022 1022 
1022 1022 1022 1022 1022 1022 1022 1022 1022 
1022 1022 1022 1022 1022 1022 1022 1022 1022 
1022 1022 1022 1022 1022 1022 1022 1022 1022 
1022 1022 1022 1022 1022 1022 1022 1022 1022 
1022 1022 1022 1022 1022 1022 1022 1022 1022 
1022 1022 1022 1022 1022 1022 1022 1022 1022 
1022 1022 1022 1022 1022 1022 1022 1022 1022 
1022 1022 1022 1022 1022 1022 1022 1022 1022 
1022 1022 1022 1022 1022 1022 1022 1022 1022 
1022 1022 1022 1022 1022 1022 1022 1022 1022 
1022 1022 1022 1022 1022 1022 1022 1022 1022 
1022 1022 1022 1022 1022 1022 1022 1022 1022 
1022 1022 1022 1022 1022 1022 1022 1022 1022 
1022 1022 1022 1022 1022 1022 1022 1022 1022 
1022 1022 1022 1022 1022 1022 1022 1022 1022 
1022 1022 1022 1022 1022 1022 1022 1022 1022 
1022 1022 1022 1022 1022 1022 1022 1022 1022 
1022 1022 1022 1022 1022 1022 1022 1022 1022 
1022 1022 1022 1022 1022 1022 1022 1022 1022 
1022 1022 1022 1022 1022 1022 1022 1022 1022 
1022 1022 1022 1022 1022 1022 1022 1022 1022 
1022 1022 1022 1022 1022 1022 1022 1022 1022 
1022 1022 1022 1022 1022 1022 1022 1022 1022 
1022 1022 1022 1022 1022 1022 1022 1022 1022 
1022 1022 1022 1022 1022 1022 1022 1022 1022 
1022 1022 1022 1022 1022 1022 1022 1022 1022 
1022 1022 1022 1022 1022 1022 1022 1022 1022 
1022 1022 1022 1022 1022 1022 1022 1022 1022 
1022 1022 1022 1022 1022 1022 1022 1022 1022 
1022 1022 1022 1022 1022 1022 1022 1022 1022 
1022 1022 1022 1022 1022 1022 1022 1022 1022 
1022 1022 1022 1022 1022 1022 1022 1022 1022 
1022 1022 1022 1022 1022 1022 1022 1022 1022 
1022 1022 1022 1022 1022 1022 1022 1022 1022 
1022 1022 1022 1022 1022 1022 1022 1022 1022 
1022 1022 1022 1022 1022 1022 1022 1022 1022 
1022 1022 1022 1022 1022 1022 1022 1022 1022 
1022 1022 1022 1022 1022 1022 1022 1022 1022 
1022 1022 1022 1022 1022 1022 1022 1022 1022 
1022 1022 1022 1022 1022 1022 1022 1022 1022 
1022 1022 1022 1022 1022 1022 1022 1022 1022 
1022 1022 1022 1022 1022 1022 1022 1022 1022 
1022 1022 1022 1022 1022 1022 1022 1022 1022 
1022 1022 1022 1022 1022 1022 1022 1022 1022 
1022 1022 1022 1022 1022 1022 1022 1022 1022 
1022 1022 1022 1022 1022 1022 1022 1022 1022 
1022 1022 1022 1022 1022 1022 1022 1022 1022 
1022 1022 1022 1022 1022 1022 1022 1022 1022 
1022 1022 1022 1022 1022 1022 1022 1022 1022 
1022 1022 1022 1022 1022 1022 1022 1022 1022 
1022 1022 1022 1022 1022 1022 1022 1022 1022 
1022 1022 1022 1022 1022 1022 1022 1022 1022 
1022 1022 1022 1022 1022 1022 1022 1022 1022 
1022 1022 1022 1022 1022 1022 1022 1022 1022 
1022 1022 1022 1022 1022 1022 1022 1022 1022 
1022 1022 1022 1022 1022 1022 1022 1022 1022 
1022 1022 1022 1022 1022 1022 1022 1022 1022 
1022 1022 1022 1022 1022 1022 1022 1022 1022 
1022 1022 1022 1022 1022 1022 1022 1022 1022 
1022 1022 1022 1022 1022 1022 1022 1022 1022 
1022 1022 1022 1022 1022 1022 1022 1022 1022 
1022 1022 1022 1022 1022 1022 1022 1022 1022 
1022 1022 1022 1022 1022 1022 1022 1022 1022 
1022 1022 1022 1022 1022 1022 1022 1022 1022 
1022 1022 1022 1022 1022 1022 1022 1022 1022 
1022 1022 1022 1022 1022 1022 1022 1022 1022 
1022 1022 1022 1022 1022 1022 1022 1022 1022 
1022 1022 1022 1022 1022 1022 1022 1022 1022 
1022 1022 1022 1022 1022 1022 1022 1022 1022 
1022 1022 1022 1022 1022 1022 1022 1022 1022 
1022 1022 1022 1022 1022 1022 1022 1022 1022 
1022 1022 1022 1022 1022 1022 1022 1022 1022 
1022 1022 1022 1022 1022 1022 1022 1022 1022 
1022 1022 1022 1022 1022 1022 1022 1022 1022 
1022 1022 1022 1022 1022 1022 1022 1022 1022 
1022 1022 1022 1022 1022 1022 1022 1022 1022 
1022 1022 1022 1022 1022 1022 1022 1022 1022 
1022 1022 1022 1022 1022 1022 1022 1022 1022 
1022 1022 1022 1022 1022 1022 1022 1022 1022 
1022 1022 1022 1022 1022 1022 1022 1022 1022 
1022 1022 1022 1022 1022 1022 1022 1022 1022 
1022 1022 1022 1022 1022 1022 1022 1022 1022 
1022 1022 1022 1022 1022 1022 1022 1022 1022 
1022 1022 1022 1022 1022 1022 1022 1022 1022 
1022 1022 1022 1022 1022 1022 1022 1022 1022 
1022 1022 1022 1022 1022 1022 1022 1022 1022 
1022 1022 1022 1022 1022 1022 1022 1022 1022 
1022 1022 1022 1022 1022 1022 1022 1022 1022 
1022 1022 1022 1022 1022 1022 1022 1022 1022 
1022 1022 1022 1022 1022 1022 1022 1022 1022 
1022 1022 1022 1022 1022 1022 1022 1022 1022 
1022 1022 1022 1022 1022 1022 1022 1022 1022 
1022 1022 1022 1022 1022 1022 1022 1022 1022 
1022 1022 1022 1022 1022 1022 1022 1022 1022 
1022 1022 1022 1022 1022 1022 1022 1022 1022 
1022 1022 1022 1022 1022 1022 1022 1022 1022 
1022 1022 1022 1022 1022 1022 1022 1022 1022 
1022 1022 1022 1022 1022 1022 1022 1022 1022 
1022 1022 1022 1022 1022 1022 1022 1022 1022 
1022 1022 1022 1022 1022 1022 1022 1022 1022 
1022 1022 1022 1022 1022 1022 1022 1022 1022 
1022 1022 1022 1022 1022 1022 1022 1022 1022 
1022 1022 1022 1022 1022 1022 1022 1022 1022 
1022 1022 1022 1022 1022 1022 1022 1022 1022 
1022 1022 1022 1022 1022 1022 1022 1022 1022 
1022 1022 1022 1022 1022 1022 1022 1022 1022 
1022 1022 1022 1022 1022 1022 1022 1022 1022 
1022 1022 1022 1022 1022 1022 1022 1022 1022 
1022 1022 1022 1022 1022 1022 1022 1022 1022 
1022 1022 1022 1022 1022 1022 1022 1022 1022 
1022 1022 1022 1022 1022 1022 1022 1022 1022 
1022 1022 1022 1022 1022 1022 1022 1022 1022 
1022 1022 1022 1022 1022 1022 1022 1022 1022 
1022 1022 1022 1022 1022 1022 1022 1022 1022 
1022 1022 1022 1022 1022 1022 1022 1022 1022 
1022 1022 1022 1022 1022 1022 1022 1022 1022 
1022 1022 1022 1022 1022 1022 1022 1022 1022 
1022 1022 1022 1022 1022 1022 1022 1022 1022 
1022 1022 1022 1022 1022 1022 1022 1022 1022 
1022 1022 1022 1022 1022 1022 1022 1022 1022 
1022 1022 1022 1022 1022 1022 1022 1022 1022 
1022 1022 1022 1022 1022 1022 1022 1022 1022 
1022 1022 1022 1022 1022 1022 1022 1022 1022 
1022 1022 1022 1022 1022 1022 1022 1022 1022 
1022 1022 1022 1022 1022 1022 1022 1022 1022 
1022 1022 1022 1022 1022 1022 1022 1022 1022 
1022 1022 1022 1022 1022 1022 1022 1022 1022 
1022 1022 1022 1022 1022 1022 1022 1022 1022 
1022 1022 1022 1022 1022 1022 1022 1022 1022 
1022 1022 1022 1022 1022 1022 1022 1022 1022 
1022 1022 1022 1022 1022 1022 1022 1022 1022 
1022 1022 1022 1022 1022 1022 1022 1022 1022 
1022 1022 1022 1022 1022 1022 1022 1022 1022 
1022 1022 1022 1022 1022 1022 1022 1022 1022 
1022 1022 1022 1022 1022 1022 1022 1022 1022 
1022 1022 1022 1022 1022 1022 1022 1022 1022 
1022 1022 1022 1022 1022 1022 1022 1022 1022 
1022 1022 1022 1022 1022 1022 1022 1022 1022 
1022 1022 1022 1022 1022 1022 1022 1022 1022 
1022 1022 1022 1022 1022 1022 1022 1022 1022 
1022 1022 1022 1022 1022 1022 1022 1022 1022 
1022 1022 1022 1022 1022 1022 1022 1022 1022 
1022 1022 1022 1022 1022 1022 1022 1022 1022 
1022 1022 1022 1022 1022 1022 1022 1022 1022 
1022 1022 1022 1022 1022 1022 1022 1022 1022 
1022 1022 1022 1022 1022 1022 1022 1022 1022 
1022 1022 1022 1022 1022 1022 1022 1022 1022 
1022 1022 1022 1022 1022 1022 1022 1022 1022 
1022 1022 1022 1022 1022 1022 1022 1022 1022 
1022 1022 1022 1022 1022 1022 1022 1022 1022 
1022 1022 1022 1022 1022 1022 1022 1022 1022 
1022 1022 1022 1022 1022 1022 1022 1022 1022 
1022 1022 1022 1022 1022 1022 1022 1022 1022 
1022 1022 1022 1022 1022 1022 1022 1022 1022 
1022 1022 1022 1022 1022 1022 1022 1022 1022 
1022 1022 1022 1022 1022 1022 1022 1022 1022 
1022 1022 1022 1022 1022 1022 1022 1022 1022 
1022 1022 1022 1022 1022 1022 1022 1022 1022 
1022 1022 1022 1022 1022 1022 1022 1022 1022 
1022 1022 1022 1022 1022 1022 1022 1022 1022 
1022 1022 1022 1022 1022 1022 1022 1022 1022 
1022 1022 1022 1022 1022 1022 1022 1022 1022 
1022 1022 1022 1022 1022 1022 1022 1022 1022 