# vtk DataFile Version 4.0
vtk output
ASCII
DATASET POLYDATA
POINTS 1560 float
-17.8793 8.77277 -0.263426 -17.8572 8.32906 0.250618 -17.4318 8.54833 -0.0999789 
-18.4065 8.34185 0.199952 -17.3085 8.89312 -0.948183 -16.9776 8.22319 -0.5055 
-16.7175 8.57441 -1.20616 -17.9783 8.8902 -1.13566 -18.4727 8.55297 -0.690293 
-16.9527 8.98785 -2.13539 -16.434 8.42871 -1.92583 -17.8359 8.94138 -2.01773 
-18.5001 8.55275 -1.77163 -16.1159 8.91246 -2.96928 -16.027 8.17846 -2.58751 
-15.5196 8.56067 -3.1816 -16.7497 8.95123 -3.24259 -17.6163 8.85174 -2.91961 
-18.4182 8.54129 -2.73908 -15.3529 8.92058 -4.00047 -14.782 8.21038 -3.57745 
-14.5266 8.57745 -4.3808 -16.118 8.95359 -4.0363 -16.5479 8.55845 -3.95191 
-17.2054 8.28501 -3.52622 -18.1901 8.23032 -3.3313 -15.1228 8.99452 -5.12243 
-14.4192 8.61647 -5.35366 -15.8704 8.95012 -5.07189 -16.3599 8.40559 -4.7939 
-14.9647 8.8724 -5.91891 -14.4438 8.45324 -6.12901 -15.6823 8.88135 -5.99552 
-16.2992 8.38802 -5.811 -15.156 8.33433 -6.49883 -16.0054 8.3057 -6.44217 
-19.0598 7.81085 0.72238 -18.9215 7.19084 1.26166 -18.5689 7.21644 0.921193 
-19.4473 7.1428 1.07274 -18.1843 7.6251 0.450544 -17.5019 7.84977 0.0382321 
-19.1525 8.1949 -0.217357 -19.872 7.51301 0.540618 -19.9236 7.85124 -0.0522453 
-20.2957 7.29033 -0.00465895 -17.1515 7.18001 -0.525794 -16.6185 7.77429 -1.12976 
-19.1861 8.19521 -1.29358 -20.1343 7.93048 -1.10226 -20.5707 7.28573 -0.800996 
-16.4007 7.47345 -1.91967 -19.1475 8.17177 -2.36022 -20.0485 8.03073 -2.11646 
-20.9253 7.52114 -1.58762 -20.937 7.83614 -2.16878 -21.3258 7.29578 -2.1315 
-15.8893 7.15347 -2.57711 -15.4315 7.82391 -3.04979 -18.9288 8.09092 -3.09021 
-19.7575 7.88435 -2.98293 -20.7286 7.82283 -2.96745 -21.3555 7.37167 -2.79269 
-14.0851 8.00916 -4.00137 -14.0826 7.45696 -3.50593 -13.6316 7.39685 -4.09294 
-14.7467 7.4904 -3.2724 -16.6977 7.82747 -4.1576 -17.1918 7.46756 -3.75037 
-18.0361 7.37448 -3.59113 -19.1232 7.46758 -3.44495 -20.2877 7.36708 -3.45896 
-21.0635 7.29364 -3.35873 -13.9197 8.0681 -4.76422 -13.5297 7.39273 -5.06089 
-16.6088 7.47885 -5.1929 -13.9077 8.00958 -5.7375 -13.6275 7.19105 -5.95831 
-16.3633 7.66678 -6.16113 -14.2774 7.59876 -6.44538 -15.1148 7.33786 -6.64652 
-15.8635 7.50028 -6.53544 -19.1001 6.68486 1.25254 -18.7266 6.68323 1.05621 
-19.4323 6.55021 1.03202 -17.8309 7.07116 -0.0510111 -18.4572 6.62255 0.343677 
-19.8109 6.4382 0.505569 -20.4751 6.60348 -0.12818 -16.9574 6.14823 -0.658815 
-16.5241 6.70198 -1.27151 -18.0394 6.30371 -0.380854 -20.7956 6.48358 -0.849043 
-16.3066 6.66072 -2.06322 -21.0694 6.81517 -1.52838 -21.4291 6.43499 -2.04892 
-14.3252 6.89257 -3.03815 -14.0596 6.46168 -2.66601 -13.5407 6.5905 -3.22619 
-15.1164 7.126 -2.97283 -14.8985 6.53462 -2.56028 -15.7824 6.41282 -2.31831 
-21.5507 6.43431 -2.93538 -13.2672 6.66528 -4.33801 -16.9584 7.1668 -4.27774 
-17.6027 6.84151 -4.11385 -18.3702 6.56975 -3.86905 -19.0456 6.58295 -3.69906 
-20.0233 6.61333 -3.66529 -20.9857 6.64304 -3.52484 -13.3072 6.45101 -5.38325 
-17.0277 6.76115 -4.95726 -17.5565 6.44273 -4.81609 -18.123 6.3449 -4.36914 
-13.5808 6.31268 -6.075 -16.541 6.77044 -5.92664 -17.1541 6.33767 -5.44111 
-14.0577 6.488 -6.42867 -14.9283 6.46191 -6.59261 -16.0053 6.3881 -6.47082 
-20.2582 5.86799 2.90207 -20.056 5.18892 3.40298 -19.6299 5.55501 2.8239 
-20.9953 5.84429 2.82591 -20.9329 5.41565 3.38903 -21.5527 5.41545 3.04218 
-20.0596 5.91564 2.00216 -19.5506 5.37992 2.01668 -20.8288 5.9405 2.02998 
-21.5485 5.56902 2.25963 -19.1005 6.29985 0.743365 -20.1492 5.98541 0.878802 
-19.6223 5.37194 1.01888 -20.8246 5.88109 0.976663 -21.5036 5.54956 1.22613 
-19.0313 6.01748 -0.00634239 -19.4049 5.45876 0.155898 -20.8979 5.96563 -0.192423 
-21.4847 5.4756 0.182698 -14.2623 5.7606 -1.093 -14.0763 5.15235 -0.618526 
-13.6456 5.48264 -1.18128 -15.2515 5.82593 -1.10333 -14.9658 5.33621 -0.577636 
-16.095 6.02924 -1.0365 -16.1215 5.47482 -0.622143 -16.9917 5.47668 -0.532054 
-17.7275 5.4139 -0.458409 -18.7218 5.54076 -0.340108 -21.1106 6.1218 -1.18204 
-21.4951 5.54751 -1.00148 -13.8738 6.03904 -2.09391 -13.327 5.35682 -1.88844 
-14.9748 6.08198 -1.87514 -15.8906 6.15955 -1.71017 -21.7022 5.55796 -2.02257 
-13.1078 5.84937 -2.79285 -12.9038 5.11313 -2.56556 -12.6698 5.49792 -3.26861 
-22.1311 5.32898 -2.55641 -22.0225 5.94524 -3.39893 -22.6489 5.34949 -2.99957 
-12.9165 6.02896 -3.76275 -12.5417 5.36598 -4.04917 -18.9772 6.11257 -4.33497 
-20.0132 6.07758 -4.14152 -20.9964 6.10918 -3.91645 -21.8352 5.85155 -4.21524 
-22.9083 5.59093 -3.46944 -22.7096 5.75012 -3.98277 -23.2952 5.15002 -3.91951 
-12.9071 5.94935 -4.73236 -12.6161 5.13185 -4.9347 -18.0379 6.06038 -5.20999 
-19.1499 5.95922 -5.19044 -20.0089 5.93738 -5.02636 -21.003 5.8342 -4.86407 
-21.7209 5.57604 -4.93077 -22.3839 5.52606 -4.62348 -23.0321 5.35304 -4.53283 
-13.0143 5.59283 -5.42222 -13.4526 5.38369 -5.97495 -17.0317 6.04437 -5.97709 
-17.7984 5.7534 -6.01739 -18.7266 5.79931 -5.88911 -19.76 5.82557 -5.90096 
-20.697 5.75367 -5.8776 -21.471 5.49435 -5.70409 -13.9492 5.63784 -6.3632 
-14.8544 5.47164 -6.65271 -15.9794 5.56054 -6.68253 -17.1148 5.52942 -6.53627 
-18.2768 5.43739 -6.53538 -19.2985 5.48943 -6.55033 -20.2988 5.5024 -6.5712 
-21.1214 5.42997 -6.41308 -20.0563 4.165 3.50889 -19.4963 4.75527 2.94486 
-20.9609 4.48021 3.63465 -22.1019 4.94322 2.69578 -21.7976 4.70787 3.37891 
-22.3458 4.24252 3.0314 -19.4244 4.46979 2.02558 -22.0605 5.0228 1.68891 
-22.4393 4.32524 2.25365 -19.3881 4.49479 0.908619 -22.006 4.97811 0.654622 
-22.3775 4.32446 1.2343 -18.3323 4.88514 -0.0907085 -18.1139 4.09868 0.286546 
-17.6196 4.40029 -0.221046 -19.0309 4.97938 0.0503288 -18.8727 4.31952 0.469178 
-21.98 4.92643 -0.339801 -22.4905 4.27491 0.232575 -14.1555 4.46227 -0.653809 
-13.5872 4.65843 -1.1474 -14.9137 4.62056 -0.548325 -15.9476 4.65125 -0.620877 
-16.9744 4.67219 -0.577246 -21.9692 4.92035 -1.32666 -22.4911 4.42147 -0.795059 
-13.2287 4.59578 -1.93402 -21.9857 4.99945 -1.96737 -22.4743 4.54263 -1.81051 
-12.908 4.15692 -2.46337 -12.5318 4.72547 -3.20391 -23.1194 5.07737 -3.20607 
-22.8331 4.70981 -2.60541 -23.3431 4.34022 -2.99507 -12.3901 4.44629 -4.06999 
-23.4686 4.26713 -3.8596 -12.5362 4.17683 -4.93813 -22.1945 5.23547 -5.4048 
-22.9192 5.01301 -5.19452 -23.389 4.5182 -4.73923 -12.943 4.72347 -5.60227 
-13.4568 4.18188 -6.23271 -21.9465 5.14723 -6.37414 -22.8733 4.88897 -6.09074 
-23.5061 4.3082 -5.77082 -14.1363 4.7936 -6.61544 -15.0672 4.89374 -7.18016 
-14.4214 4.50267 -7.37641 -15.999 5.07368 -7.163 -17.0106 5.08026 -7.15887 
-18.0131 5.08396 -7.17237 -19.0178 5.11479 -7.18511 -19.8801 5.18185 -7.08026 
-20.8702 5.02352 -7.13755 -21.8259 4.89312 -7.09364 -22.6808 4.84721 -6.95098 
-23.4571 4.50594 -6.77606 -14.9875 4.72919 -7.81792 -14.5778 4.49303 -7.9558 
-15.77 4.83623 -7.89054 -16.7858 4.84336 -7.89814 -17.7713 4.82528 -7.90207 
-18.7724 4.84327 -7.92003 -19.8428 4.82955 -7.85703 -20.5038 4.3804 -8.06828 
-21.1996 4.29763 -7.55972 -22.2463 4.41648 -7.43866 -23.2287 4.29473 -7.41027 
-15.0338 4.39366 -8.46892 -16.2639 4.52995 -8.58286 -17.2932 4.50938 -8.57467 
-18.2996 4.51 -8.58301 -19.3095 4.50973 -8.61497 -20.0393 4.35113 -8.60896 
-20.2119 3.18674 3.41477 -19.6154 3.7436 2.94423 -20.8301 3.56591 3.64066 
-21.8096 3.6536 3.41642 -22.4113 3.6691 2.81243 -19.5941 3.56252 2.01457 
-22.6051 3.45005 2.06131 -19.4854 3.58224 1.12399 -22.7112 3.59111 1.0642 
-18.2193 3.46468 0.267079 -17.6951 3.67471 -0.0173302 -18.9134 3.5829 0.578466 
-22.9985 3.63938 0.462514 -23.2109 3.95194 -0.289434 -23.9971 3.71301 -0.283216 
-23.6739 3.49415 0.377803 -24.3354 3.22824 0.210623 -13.9594 3.95936 -1.07421 
-14.6961 3.94054 -0.930623 -15.687 3.97477 -0.966313 -16.6438 3.90478 -0.998439 
-17.3995 3.64414 -0.693675 -23.0032 4.10098 -1.18412 -23.6954 3.78987 -1.09567 
-24.4724 3.32001 -0.688232 -14.3025 3.42327 -1.52871 -13.5043 3.76517 -1.77316 
-15.2767 3.26943 -1.47121 -16.2604 3.3025 -1.38735 -17.1738 3.18867 -1.32776 
-23.1645 4.08725 -1.97096 -23.6401 3.65426 -2.06919 -24.1636 3.40542 -1.43099 
-13.1014 3.40166 -2.45473 -12.6005 3.75814 -3.13193 -23.6242 3.58556 -3.02921 
-12.5412 3.53883 -4.01583 -23.6119 3.5853 -4.02597 -12.6758 3.42033 -4.81558 
-23.7036 3.59469 -4.95462 -12.938 3.7597 -5.52109 -13.332 3.2236 -5.8596 
-23.9487 3.59692 -5.6461 -24.0186 3.92454 -6.41831 -24.3821 3.39591 -6.02489 
-13.892 4.13954 -6.98785 -13.5914 3.42595 -6.92177 -23.915 4.0373 -7.13741 
-24.4842 3.50621 -6.81818 -14.089 4.02437 -7.85455 -13.6238 3.17712 -8.11073 
-20.6471 3.69139 -8.05192 -21.0914 3.22506 -7.64644 -21.9464 3.5064 -7.51681 
-23.0223 3.53185 -7.58203 -24.1195 3.40868 -7.45839 -14.176 3.74317 -8.69115 
-14.8283 3.88936 -9.05879 -14.3157 3.41448 -9.2064 -15.6937 4.04036 -9.10451 
-16.7275 4.04688 -9.10707 -17.7389 4.02424 -9.10302 -18.7875 4.03212 -9.1415 
-19.7335 3.94953 -9.1445 -20.335 3.58941 -8.7515 -15.0893 3.29789 -9.43874 
-16.201 3.39802 -9.45586 -17.2252 3.37037 -9.45657 -18.2563 3.37676 -9.48667 
-19.2746 3.36224 -9.5103 -20.0011 3.23723 -9.35227 -19.9631 2.92769 2.73758 
-20.4556 2.54264 3.07556 -21.1017 2.7593 3.3435 -22.1241 2.86794 2.8951 
-21.5184 2.2336 2.8 -19.9886 2.89009 1.74699 -20.4647 2.30335 2.15783 
-22.2583 2.17282 2.64528 -22.9942 2.43531 2.42992 -23.2815 2.96894 1.7416 
-24.0544 2.69778 1.75676 -23.8102 2.42696 2.22829 -24.3292 2.19816 1.99577 
-19.8589 2.95827 0.691164 -20.3422 2.42084 1.1559 -23.2347 3.24605 0.965901 
-23.8945 3.04036 1.06206 -24.5748 2.41755 1.12429 -18.088 3.18972 -0.353187 
-19.1117 3.10203 -0.0751655 -20.0302 2.81495 -0.253506 -20.3995 2.34056 0.204389 
-24.7724 2.65644 0.0277998 -17.871 3.04945 -1.05032 -18.7171 2.87553 -0.965275 
-19.6951 2.79331 -0.975373 -20.3212 2.34737 -0.769009 -24.9525 2.68659 -0.631183 
-24.8432 2.92895 -1.37385 -25.2921 2.23307 -0.831116 -13.8891 3.07634 -2.31545 
-14.8583 2.91638 -2.09805 -15.5208 2.62711 -1.98814 -16.0925 2.60849 -1.72574 
-17.0415 2.39618 -1.63287 -18.0933 2.46285 -1.44866 -19.2663 2.36401 -1.46431 
-20.0213 2.26609 -1.37127 -24.2481 3.16159 -2.22617 -24.9958 2.81979 -2.21866 
[...]
CELL_DATA 3116
SCALARS scalars float
LOOKUP_TABLE default
13 13 13 13 13 13 13 13 13 
13 13 13 13 13 13 13 13 13 
13 13 13 13 13 13 13 13 13 
13 13 13 13 13 13 13 13 13 
13 13 13 13 13 13 13 13 13 
13 13 13 13 13 13 13 13 13 
13 13 13 13 13 13 13 13 13 
13 13 13 13 13 13 13 13 13 
13 13 13 13 13 13 13 13 13 
13 13 13 13 13 13 13 13 13 
13 13 13 13 13 13 13 13 13 
13 13 13 13 13 13 13 13 13 
13 13 13 13 13 13 13 13 13 
13 13 13 13 13 13 13 13 13 
13 13 13 13 13 13 13 13 13 
13 13 13 13 13 13 13 13 13 
13 13 13 13 13 13 13 13 13 
13 13 13 13 13 13 13 13 13 
13 13 13 13 13 13 13 13 13 
13 13 13 13 13 13 13 13 13 
13 13 13 13 13 13 13 13 13 
13 13 13 13 13 13 13 13 13 
13 13 13 13 13 13 13 13 13 
13 13 13 13 13 13 13 13 13 
13 13 13 13 13 13 13 13 13 
13 13 13 13 13 13 13 13 13 
13 13 13 13 13 13 13 13 13 
13 13 13 13 13 13 13 13 13 
13 13 13 13 13 13 13 13 13 
13 13 13 13 13 13 13 13 13 
13 13 13 13 13 13 13 13 13 
13 13 13 13 13 13 13 13 13 
13 13 13 13 13 13 13 13 13 
13 13 13 13 13 13 13 13 13 
13 13 13 13 13 13 13 13 13 
13 13 13 13 13 13 13 13 13 
13 13 13 13 13 13 13 13 13 
13 13 13 13 13 13 13 13 13 
13 13 13 13 13 13 13 13 13 
13 13 13 13 13 13 13 13 13 
13 13 13 13 13 13 13 13 13 
13 13 13 13 13 13 13 13 13 
13 13 13 13 13 13 13 13 13 
13 13 13 13 13 13 13 13 13 
13 13 13 13 13 13 13 13 13 
13 13 13 13 13 13 13 13 13 
13 13 13 13 13 13 13 13 13 
13 13 13 13 13 13 13 13 13 
13 13 13 13 13 13 13 13 13 
13 13 13 13 13 13 13 13 13 
13 13 13 13 13 13 13 13 13 
13 13 13 13 13 13 13 13 13 
13 13 13 13 13 13 13 13 13 
13 13 13 13 13 13 13 13 13 
13 13 13 13 13 13 13 13 13 
13 13 13 13 13 13 13 13 13 
13 13 13 13 13 13 13 13 13 
13 13 13 13 13 13 13 13 13 
13 13 13 13 13 13 13 13 13 
13 13 13 13 13 13 13 13 13 
13 13 13 13 13 13 13 13 13 
13 13 13 13 13 13 13 13 13 
13 13 13 13 13 13 13 13 13 
13 13 13 13 13 13 13 13 13 
13 13 13 13 13 13 13 13 13 
13 13 13 13 13 13 13 13 13 
13 13 13 13 13 13 13 13 13 
13 13 13 13 13 13 13 13 13 
13 13 13 13 13 13 13 13 13 
13 13 13 13 13 13 13 13 13 
13 13 13 13 13 13 13 13 13 
13 13 13 13 13 13 13 13 13 
13 13 13 13 13 13 13 13 13 
13 13 13 13 13 13 13 13 13 
13 13 13 13 13 13 13 13 13 
13 13 13 13 13 13 13 13 13 
13 13 13 13 13 13 13 13 13 
13 13 13 13 13 13 13 13 13 
13 13 13 13 13 13 13 13 13 
13 13 13 13 13 13 13 13 13 
13 13 13 13 13 13 13 13 13 
13 13 13 13 13 13 13 13 13 
13 13 13 13 13 13 13 13 13 
13 13 13 13 13 13 13 13 13 
13 13 13 13 13 13 13 13 13 
13 13 13 13 13 13 13 13 13 
13 13 13 13 13 13 13 13 13 
13 13 13 13 13 13 13 13 13 
13 13 13 13 13 13 13 13 13 
13 13 13 13 13 13 13 13 13 
13 13 13 13 13 13 13 13 13 
13 13 13 13 13 13 13 13 13 
13 13 13 13 13 13 13 13 13 
13 13 13 13 13 13 13 13 13 
13 13 13 13 13 13 13 13 13 
13 13 13 13 13 13 13 13 13 
13 13 13 13 13 13 13 13 13 
13 13 13 13 13 13 13 13 13 
13 13 13 13 13 13 13 13 13 
13 13 13 13 13 13 13 13 13 
13 13 13 13 13 13 13 13 13 
13 13 13 13 13 13 13 13 13 
13 13 13 13 13 13 13 13 13 
13 13 13 13 13 13 13 13 13 
13 13 13 13 13 13 13 13 13 
13 13 13 13 13 13 13 13 13 
13 13 13 13 13 13 13 13 13 
13 13 13 13 13 13 13 13 13 
13 13 13 13 13 13 13 13 13 
13 13 13 13 13 13 13 13 13 
13 13 13 13 13 13 13 13 13 
13 13 13 13 13 13 13 13 13 
13 13 13 13 13 13 13 13 13 
13 13 13 13 13 13 13 13 13 
13 13 13 13 13 13 13 13 13 
13 13 13 13 13 13 13 13 13 
13 13 13 13 13 13 13 13 13 
13 13 13 13 13 13 13 13 13 
13 13 13 13 13 13 13 13 13 
13 13 13 13 13 13 13 13 13 
13 13 13 13 13 13 13 13 13 
13 13 13 13 13 13 13 13 13 
13 13 13 13 13 13 13 13 13 
13 13 13 13 13 13 13 13 13 
13 13 13 13 13 13 13 13 13 
13 13 13 13 13 13 13 13 13 
13 13 13 13 13 13 13 13 13 
13 13 13 13 13 13 13 13 13 
13 13 13 13 13 13 13 13 13 
13 13 13 13 13 13 13 13 13 
13 13 13 13 13 13 13 13 13 
13 13 13 13 13 13 13 13 13 
13 13 13 13 13 13 13 13 13 
13 13 13 13 13 13 13 13 13 
13 13 13 13 13 13 13 13 13 
13 13 13 13 13 13 13 13 13 
13 13 13 13 13 13 13 13 13 
13 13 13 13 13 13 13 13 13 
13 13 13 13 13 13 13 13 13 
13 13 13 13 13 13 13 13 13 
13 13 13 13 13 13 13 13 13 
13 13 13 13 13 13 13 13 13 
13 13 13 13 13 13 13 13 13 
13 13 13 13 13 13 13 13 13 
13 13 13 13 13 13 13 13 13 
13 13 13 13 13 13 13 13 13 
13 13 13 13 13 13 13 13 13 
13 13 13 13 13 13 13 13 13 
13 13 13 13 13 13 13 13 13 
13 13 13 13 13 13 13 13 13 
13 13 13 13 13 13 13 13 13 
13 13 13 13 13 13 13 13 13 
13 13 13 13 13 13 13 13 13 
13 13 13 13 13 13 13 13 13 
13 13 13 13 13 13 13 13 13 
13 13 13 13 13 13 13 13 13 
13 13 13 13 13 13 13 13 13 
13 13 13 13 13 13 13 13 13 
13 13 13 13 13 13 13 13 13 
13 13 13 13 13 13 13 13 13 
13 13 13 13 13 13 13 13 13 
13 13 13 13 13 13 13 13 13 
13 13 13 13 13 13 13 13 13 
13 13 13 13 13 13 13 13 13 
13 13 13 13 13 13 13 13 13 
13 13 13 13 13 13 13 13 13 
13 13 13 13 13 13 13 13 13 
13 13 13 13 13 13 13 13 13 
13 13 13 13 13 13 13 13 13 
13 13 13 13 13 13 13 13 13 
13 13 13 13 13 13 13 13 13 
13 13 13 13 13 13 13 13 13 
13 13 13 13 13 13 13 13 13 
13 13 13 13 13 13 13 13 13 
13 13 13 13 13 13 13 13 13 
13 13 13 13 13 13 13 13 13 
13 13 13 13 13 13 13 13 13 
13 13 13 13 13 13 13 13 13 
13 13 13 13 13 13 13 13 13 
13 13 13 13 13 13 13 13 13 
13 13 13 13 13 13 13 13 13 
13 13 13 13 13 13 13 13 13 
13 13 13 13 13 13 13 13 13 
13 13 13 13 13 13 13 13 13 
13 13 13 13 13 13 13 13 13 
13 13 13 13 13 13 13 13 13 
13 13 13 13 13 13 13 13 13 
13 13 13 13 13 13 13 13 13 
13 13 13 13 13 13 13 13 13 
13 13 13 13 13 13 13 13 13 
13 13 13 13 13 13 13 13 13 
13 13 13 13 13 13 13 13 13 
13 13 13 13 13 13 13 13 13 
13 13 13 13 13 13 13 13 13 
13 13 13 13 13 13 13 13 13 
13 13 13 13 13 13 13 13 13 
13 13 13 13 13 13 13 13 13 
13 13 13 13 13 13 13 13 13 
13 13 13 13 13 13 13 13 13 
13 13 13 13 13 13 13 13 13 
13 13 13 13 13 13 13 13 13 
13 13 13 13 13 13 13 13 13 
13 13 13 13 13 13 13 13 13 
13 13 13 13 13 13 13 13 13 
13 13 13 13 13 13 13 13 13 
13 13 13 13 13 13 13 13 13 
13 13 13 13 13 13 13 13 13 
13 13 13 13 13 13 13 13 13 
13 13 13 13 13 13 13 13 13 
13 13 13 13 13 13 13 13 13 
13 13 13 13 13 13 13 13 13 
13 13 13 13 13 13 13 13 13 
13 13 13 13 13 13 13 13 13 
13 13 13 13 13 13 13 13 13 
13 13 13 13 13 13 13 13 13 
13 13 13 13 13 13 13 13 13 
13 13 13 13 13 13 13 13 13 
13 13 13 13 13 13 13 13 13 
13 13 13 13 13 13 13 13 13 
13 13 13 13 13 13 13 13 13 
13 13 13 13 13 13 13 13 13 
13 13 13 13 13 13 13 13 13 
13 13 13 13 13 13 13 13 13 
13 13 13 13 13 13 13 13 13 
13 13 13 13 13 13 13 13 13 
13 13 13 13 13 13 13 13 13 
13 13 13 13 13 13 13 13 13 
13 13 13 13 13 13 13 13 13 
13 13 13 13 13 13 13 13 13 
13 13 13 13 13 13 13 13 13 
13 13 13 13 13 13 13 13 13 
13 13 13 13 13 13 13 13 13 
13 13 13 13 13 13 13 13 13 
13 13 13 13 13 13 13 13 13 
13 13 13 13 13 13 13 13 13 
13 13 13 13 13 13 13 13 13 
13 13 13 13 13 13 13 13 13 
13 13 13 13 13 13 13 13 13 
13 13 13 13 13 13 13 13 13 
13 13 13 13 13 13 13 13 13 
13 13 13 13 13 13 13 13 13 
13 13 13 13 13 13 13 13 13 
13 13 13 13 13 13 13 13 13 
13 13 13 13 13 13 13 13 13 
13 13 13 13 13 13 13 13 13 
13 13 13 13 13 13 13 13 13 
13 13 13 13 13 13 13 13 13 
13 13 13 13 13 13 13 13 13 
13 13 13 13 13 13 13 13 13 
13 13 13 13 13 13 13 13 13 
13 13 13 13 13 13 13 13 13 
13 13 13 13 13 13 13 13 13 
13 13 13 13 13 13 13 13 13 
13 13 13 13 13 13 13 13 13 
13 13 13 13 13 13 13 13 13 
13 13 13 13 13 13 13 13 13 
13 13 13 13 13 13 13 13 13 
13 13 13 13 13 13 13 13 13 
13 13 13 13 13 13 13 13 13 
13 13 13 13 13 13 13 13 13 
13 13 13 13 13 13 13 13 13 
13 13 13 13 13 13 13 13 13 
13 13 13 13 13 13 13 13 13 
13 13 13 13 13 13 13 13 13 
13 13 13 13 13 13 13 13 13 
13 13 13 13 13 13 13 13 13 
13 13 13 13 13 13 13 13 13 
13 13 13 13 13 13 13 13 13 
13 13 13 13 13 13 13 13 13 
13 13 13 13 13 13 13 13 13 
13 13 13 13 13 13 13 13 13 
13 13 13 13 13 13 13 13 13 
13 13 13 13 13 13 13 13 13 
13 13 13 13 13 13 13 13 13 
13 13 13 13 13 13 13 13 13 
13 13 13 13 13 13 13 13 13 
13 13 13 13 13 13 13 13 13 
13 13 13 13 13 13 13 13 13 
13 13 13 13 13 13 13 13 13 
13 13 13 13 13 13 13 13 13 
13 13 13 13 13 13 13 13 13 
13 13 13 13 13 13 13 13 13 
13 13 13 13 13 13 13 13 13 
13 13 13 13 13 13 13 13 13 
13 13 13 13 13 13 13 13 13 
13 13 13 13 13 13 13 13 13 
13 13 13 13 13 13 13 13 13 
13 13 13 13 13 13 13 13 13 
13 13 13 13 13 13 13 13 13 
13 13 13 13 13 13 13 13 13 
13 13 13 13 13 13 13 13 13 
13 13 13 13 13 13 13 13 13 
13 13 13 13 13 13 13 13 13 
13 13 13 13 13 13 13 13 13 
13 13 13 13 13 13 13 13 13 
13 13 13 13 13 13 13 13 13 
13 13 13 13 13 13 13 13 13 
13 13 13 13 13 13 13 13 13 
13 13 13 13 13 13 13 13 13 
13 13 13 13 13 13 13 13 13 
13 13 13 13 13 13 13 13 13 
13 13 13 13 13 13 13 13 13 
13 13 13 13 13 13 13 13 13 
13 13 13 13 13 13 13 13 13 
13 13 13 13 13 13 13 13 13 
13 13 13 13 13 13 13 13 13 
13 13 13 13 13 13 13 13 13 
13 13 13 13 13 13 13 13 13 
13 13 13 13 13 13 13 13 13 
13 13 13 13 13 13 13 13 13 
13 13 13 13 13 13 13 13 13 
13 13 13 13 13 13 13 13 13 
13 13 13 13 13 13 13 13 13 
13 13 13 13 13 13 13 13 13 
13 13 13 13 13 13 13 13 13 
13 13 13 13 13 13 13 13 13 
13 13 13 13 13 13 13 13 13 
13 13 13 13 13 13 13 13 13 
13 13 13 13 13 13 13 13 13 
13 13 13 13 13 13 13 13 13 
13 13 13 13 13 13 13 13 13 
13 13 13 13 13 13 13 13 13 
13 13 13 13 13 13 13 13 13 
13 13 13 13 13 13 13 13 13 
13 13 13 13 13 13 13 13 13 
13 13 13 13 13 13 13 13 13 
13 13 13 13 13 13 13 13 13 
13 13 13 13 13 13 13 13 13 
13 13 13 13 13 13 13 13 13 
13 13 13 13 13 13 13 13 13 
13 13 13 13 13 13 13 13 13 
13 13 13 13 13 13 13 13 13 
13 13 13 13 13 13 13 13 13 
13 13 13 13 13 13 13 13 13 
13 13 13 13 13 13 13 13 13 
13 13 13 13 13 13 13 13 13 
13 13 13 13 13 13 13 13 13 
13 13 13 13 13 13 13 13 13 
13 13 13 13 13 13 13 13 13 
13 13 13 13 13 13 13 13 13 
13 13 13 13 13 13 13 13 13 
13 13 13 13 13 13 13 13 13 
13 13 13 13 13 13 13 13 13 
13 13 13 13 13 13 13 13 13 
13 13 13 13 13 13 13 13 13 
13 13 13 13 13 13 13 13 13 
13 13 
