# vtk DataFile Version 4.0
vtk output
ASCII
DATASET POLYDATA
POINTS 1502 float
-18.2696 2.81225 -19.1381 -17.8367 2.4638 -18.6712 -17.4897 2.52894 -19.3587 
-19.214 2.87449 -19.1093 -18.6749 2.51849 -18.4947 -20.2198 2.87428 -19.1127 
-19.7193 2.49897 -18.4918 -21.2154 2.87904 -19.1201 -20.7279 2.49935 -18.4902 
-22.1501 2.79739 -19.2604 -21.6606 2.48764 -18.556 -22.3799 2.42096 -18.8462 
-18.0694 2.89678 -20.0355 -17.4086 2.54281 -20.2998 -18.9626 3.02121 -19.9843 
-19.9622 3.01073 -19.9939 -20.9707 3.00955 -19.9835 -21.9907 3.00373 -20.0116 
-22.8093 2.54741 -19.4377 -23.0551 2.81766 -20.1392 -23.4041 2.40814 -19.8617 
-18.0657 2.8284 -20.9737 -17.5125 2.53308 -20.9491 -18.9707 3.03983 -21.0223 
-19.9779 3.04892 -21.0509 -20.982 3.01592 -21.0361 -21.975 3.02322 -21.0097 
-23.0157 3.02284 -21.0274 -23.9327 2.54938 -20.3775 -24.1467 2.88331 -21.0731 
-25.0294 2.72903 -21.2881 -24.6991 2.47532 -20.6211 -25.3567 2.38027 -20.9662 
-17.8668 2.42357 -21.5564 -18.5664 2.4762 -22.2657 -18.9605 2.87158 -21.9659 
-19.9967 3.05423 -22.0861 -21 3.03707 -22.1031 -21.9997 3.01188 -22.071 
-23.0254 3.03912 -22.0577 -24.0437 3.037 -22.0733 -24.9129 2.85976 -22.0497 
-25.5259 2.46687 -21.768 -19.1593 2.62698 -22.6824 -19.4045 2.37067 -23.1585 
-19.8184 2.83697 -22.8322 -20.738 2.88792 -22.9469 -21.751 2.86462 -22.9362 
-22.922 2.90401 -23.0572 -24.0397 3.04508 -23.1085 -24.8963 2.8821 -23.0745 
-25.5132 2.47735 -22.7715 -20.1543 2.24759 -23.3901 -21.2705 2.32379 -23.4019 
-22.296 2.33804 -23.3898 -23.1246 2.50516 -23.605 -23.5269 2.35813 -24.1596 
-23.9533 2.92341 -24.0195 -24.8742 2.89182 -24.0878 -25.5211 2.47803 -23.7983 
-24.0066 2.77023 -24.8001 -23.6888 2.12609 -25.1011 -24.6549 2.83537 -24.9273 
-25.4095 2.48603 -24.7479 -24.307 2.50813 -25.4666 -25.032 2.43262 -25.399 
-26.2582 1.80742 -16.1355 -25.8665 1.45193 -15.6392 -25.502 1.51126 -16.3294 
-27.1473 1.83081 -16.2311 -26.8431 1.3224 -15.4658 -27.5191 1.37605 -15.8961 
-17.2359 1.83287 -17.1674 -16.9065 1.37917 -16.4942 -16.6167 1.3916 -17.0732 
-18.1654 1.80442 -17.3096 -17.6179 1.4977 -16.6 -18.3818 1.4105 -16.8978 
-25.9594 1.88453 -17.1142 -25.2701 1.55284 -17.1002 -26.9801 2.03754 -16.9821 
-27.8729 1.62633 -16.3231 -28.0947 1.94259 -17.019 -29.0108 1.77757 -17.2801 
-28.6815 1.54154 -16.5678 -29.3965 1.34179 -17.0863 -16.9428 1.8849 -17.845 
-16.5682 1.38155 -18.0175 -17.8385 2.14337 -18.0165 -18.9211 1.53318 -17.3976 
-19.0998 1.98938 -17.9299 -20.2789 1.95573 -18.0363 -19.747 1.4473 -17.5618 
-21.2783 1.95767 -18.0324 -20.7542 1.41946 -17.5647 -22.2916 1.95343 -18.1937 
-21.7542 1.43013 -17.5461 -23.2791 1.79862 -18.1996 -22.7388 1.43412 -17.5555 
-24.2449 1.78783 -18.1708 -23.7198 1.43621 -17.5719 -25.244 1.8427 -17.961 
-24.6327 1.46012 -17.4707 -26.1207 1.98199 -18.1467 -26.963 2.03638 -17.9955 
-28.0172 2.05798 -18.0303 -28.9223 1.88798 -18.0642 -29.3982 1.52074 -17.8898 
-17.0851 2.03579 -18.7239 -16.5839 1.37734 -19.0514 -23.1089 2.13703 -19.0668 
-24.0104 1.95351 -19.0401 -24.9808 1.94056 -19.0112 -25.9665 1.96368 -18.9999 
-26.9865 2.0093 -19.0231 -28.0259 2.03697 -19.073 -28.8956 1.87883 -19.0944 
-29.3987 1.38543 -18.7979 -16.9299 2.02524 -19.7667 -16.581 1.35932 -20.0766 
-24.0466 2.17584 -19.8967 -25.0262 2.07268 -20.0844 -25.9685 1.9554 -20.0194 
-26.9923 1.9785 -20.0231 -28.0285 2.01699 -20.0867 -28.8858 1.86518 -20.1088 
-29.3653 1.33168 -19.8193 -17.0581 2.01607 -20.7997 -16.652 1.1653 -20.9392 
-26.0067 2.0652 -21.1313 -26.9996 1.96013 -21.0246 -28.0116 1.99313 -21.0781 
-28.866 1.86275 -21.0941 -29.4691 1.30731 -20.7955 -17.2267 1.65475 -21.5571 
-17.9524 2.03813 -22.2245 -17.4524 1.38461 -22.2089 -26.1316 2.08608 -22.2851 
-26.9856 1.94843 -22.026 -27.994 1.96423 -22.0571 -28.8547 1.84421 -22.0778 
-29.4731 1.46451 -21.8277 -17.9406 1.7636 -22.8205 -17.6636 1.15451 -22.9109 
-18.6375 2.10032 -22.9239 -26.1316 2.07525 -23.3039 -26.968 1.929 -23.0193 
-27.9718 1.95127 -23.0192 -29.032 1.84522 -23.1182 -29.5442 1.46167 -22.7589 
-18.1819 1.52614 -23.2917 -19.0959 1.55501 -23.5508 -20.1149 1.44925 -23.6846 
-21.0032 1.54506 -23.6616 -22.0285 1.5505 -23.6313 -22.8977 1.78302 -23.7038 
-23.3264 1.53918 -24.3302 -26.1183 2.07959 -24.3055 -26.9705 1.91926 -24.011 
-27.9577 1.94083 -23.9895 -28.9825 1.96458 -24.0461 -29.8816 1.52666 -23.4069 
-30.0799 1.85556 -24.057 -31.2624 1.87068 -24.1565 -30.694 1.45925 -23.5511 
-32.3044 1.90979 -24.1473 -31.8694 1.36018 -23.5114 -33.0494 1.81581 -24.242 
-32.9668 1.37057 -23.7163 -33.5646 1.24438 -24.1673 -23.3806 1.39975 -25.1717 
-25.9088 2.06286 -25.3198 -26.9607 1.92233 -25.0116 -27.9691 1.92725 -24.9867 
-28.9848 1.96493 -25.0312 -30.0008 1.98691 -25.0427 -31.0343 2.02806 -25.0398 
-32.057 2.07581 -25.0501 -32.9071 1.95484 -25.041 -33.3921 1.55803 -24.8629 
-24.1162 2.0546 -26.0917 -23.5103 1.56871 -26.1536 -25.0707 2.10191 -26.0412 
-26.113 1.93984 -26.1813 -26.9705 1.92454 -26.0059 -27.9873 1.93461 -25.9945 
-29.0121 1.95994 -26.0443 -30.0227 1.98574 -26.0529 -31.0183 2.02351 -26.062 
-32.0249 2.0672 -26.094 -32.9112 1.9466 -26.098 -33.4258 1.43367 -25.8299 
-24.1249 1.87372 -27.061 -23.51 1.51314 -27.3272 -24.9656 2.00023 -27.0296 
-25.99 1.97204 -27.0348 -27.0164 1.9563 -27.0263 -28.0255 1.9731 -27.032 
-29.0485 1.99415 -27.0749 -30.0622 2.00176 -27.0851 -30.8847 2.00644 -26.929 
-31.7753 1.92256 -27.1645 -32.7416 1.852 -27.0072 -33.372 1.41367 -26.8254 
-24.1159 1.90716 -28.0913 -23.4707 1.5424 -28.3225 -24.9642 2.03399 -28.065 
-25.9697 2.02649 -28.0815 -26.9957 2.01266 -28.0822 -28.009 2.01808 -28.0857 
-29.0268 2.03343 -28.1083 -30.0517 2.03417 -28.1383 -31.0462 1.91367 -28.0031 
-31.6548 1.54645 -28.0446 -32.2943 1.31509 -27.6333 -33.0735 1.31773 -27.394 
-23.9444 1.80768 -28.8459 -23.4642 1.40788 -29.0524 -24.6986 1.91863 -28.9241 
-25.7044 1.9316 -28.9617 -26.722 1.91339 -28.9743 -27.7303 1.90534 -28.9795 
-28.7511 1.90658 -28.9909 -29.7927 1.91627 -29.0284 -30.7486 1.82418 -29.0255 
-31.3566 1.4047 -28.7982 -24.1427 1.33536 -29.404 -25.2445 1.42249 -29.4472 
-26.2602 1.40832 -29.4532 -27.2559 1.39799 -29.4642 -28.2831 1.38128 -29.4904 
-29.3246 1.40135 -29.5281 -30.3351 1.39171 -29.549 -31.0525 1.25875 -29.4082 
-20.1725 0.802941 -15.2451 -19.9224 0.158979 -14.6875 -19.4026 0.55212 -15.1577 
-21.2482 0.857194 -15.1511 -20.8204 0.483397 -14.6657 -22.2051 0.762423 -15.3145 
-21.6589 0.311028 -14.5798 -22.4409 0.385393 -14.8932 -25.0686 0.802476 -15.1633 
-25.2127 0.261324 -14.6954 -24.4205 0.37913 -15.0399 -26.0554 1.02807 -15.0765 
-26.008 0.354293 -14.6174 -26.8769 0.922502 -14.941 -26.948 0.388105 -14.6474 
-27.4978 0.52146 -14.9659 -17.2035 0.945716 -15.9842 -16.9094 0.349716 -15.4688 
-16.5745 0.573993 -16.0862 -18.2097 0.989993 -16.1766 -17.6743 0.477445 -15.4796 
-19.276 0.860525 -15.9754 -18.6346 0.504752 -15.4319 -20.1596 0.950794 -16.1757 
-21.0003 0.983228 -16.007 -22.0322 0.977724 -16.0417 -22.935 0.548045 -15.4341 
-23.1437 0.845353 -16.1052 -24.2845 0.856674 -16.0073 -23.6647 0.476366 -15.5322 
-25.1679 1.15446 -15.8114 -28.3079 1.10828 -15.9715 -27.9959 0.618567 -15.466 
-29.3076 1.02191 -16.1697 -29.0362 0.40223 -15.6092 -30.0199 0.769793 -16.2045 
-29.8129 0.512355 -15.7211 -30.2857 0.270777 -15.9624 -16.4226 0.520528 -17.0166 
-19.0621 1.15444 -16.9081 -19.981 1.06747 -16.9249 -20.964 1.07622 -16.9055 
-21.968 1.09697 -16.8835 -22.9953 1.09686 -16.9273 -23.9999 1.09057 -16.934 
-24.8401 1.19234 -16.7046 -29.8495 0.868631 -16.9442 -30.3227 0.239685 -16.7764 
-16.3321 0.515028 -18.1558 -29.682 0.836738 -18.0044 -30.0447 0.316967 -17.6 
-16.3053 0.658956 -19.3592 -29.6279 0.594778 -19.1144 -16.2937 0.630638 -20.367 
-29.6704 0.589526 -20.0131 -16.3596 0.409659 -21.0682 -29.9576 0.630634 -20.5547 
-30.1925 0.97227 -21.2999 -31.2379 0.844372 -21.1964 -30.8549 0.352163 -20.5388 
-31.981 0.767868 -21.241 -31.9244 0.351898 -20.7058 -32.5229 0.350277 -20.993 
-16.8535 0.614058 -21.5601 -17.313 0.472001 -22.1862 -30.1216 1.10864 -22.3513 
-30.9743 0.975987 -22.0816 -31.8322 0.85782 -21.999 -32.5073 0.525947 -21.7461 
-17.6058 0.20575 -22.8871 -30.1895 1.20108 -23.0784 -30.9469 1.09145 -22.9405 
-31.8819 0.892986 -22.8669 -32.5587 0.488825 -22.6982 -18.1311 0.789703 -23.5374 
-19.0021 0.94027 -24.1693 -18.4293 0.398748 -24.1873 -19.9479 1.08129 -24.1488 
-20.9799 1.02656 -24.1572 -22.0145 0.992476 -24.1165 -22.7795 1.1343 -23.979 
-32.8962 0.590039 -23.4166 -33.9998 0.686011 -24.1877 -33.7758 0.585872 -23.8231 
-34.1865 0.403232 -24.0323 -19.0517 0.89944 -25.0449 -18.5492 0.404065 -25.0658 
-19.9535 1.00438 -25.0366 -21.011 0.930696 -25.0393 -22.0586 0.857958 -25.0009 
-22.9163 0.988143 -24.7167 -33.6728 0.617966 -24.898 -34.0314 0.278493 -24.2737 
-18.9419 0.842157 -25.8285 -18.6313 0.212065 -25.9642 -19.8296 0.966818 -26.0537 
-20.9843 0.991197 -26.0617 -22.0559 0.92554 -26.0511 -22.9237 1.039 -25.7447 
-33.5411 0.480694 -26.1293 -19.2754 0.453031 -26.4176 -20.0174 0.551157 -26.6943 
-20.5151 0.147783 -27.2598 -20.7796 0.824311 -26.8325 -21.9325 0.887166 -27.0502 
-22.8914 1.10512 -26.775 -33.4158 0.515875 -27.0069 -21.3091 0.48825 -27.5431 
-22.1015 0.578596 -27.7816 -22.3961 0.304883 -28.4419 -22.8365 1.0114 -27.7939 
-31.6882 0.820641 -28.2524 -32.1828 0.253418 -27.7479 -32.9214 0.510588 -27.4711 
-22.9741 0.9682 -28.7722 -22.6411 0.226687 -29.3108 -31.3386 0.596161 -28.9777 
-23.2733 0.717335 -29.5411 -24.0871 0.561758 -29.7629 -24.9578 0.665976 -29.7218 
-26.0606 0.468651 -29.6908 -27.0273 0.472289 -29.5876 -28.0087 0.469331 -29.6019 
-29.0179 0.479161 -29.6354 -29.8918 0.65096 -29.6573 -30.7246 0.428009 -29.4657 
-22.3097 -0.140245 -12.0505 -21.8892 -0.80197 -11.5594 -21.4884 -0.507317 -12.2639 
-23.2425 -0.109758 -12.2016 -22.7762 -0.450342 -11.6489 -23.4737 -0.756463 -11.9563 
-22.1181 -0.128682 -12.9909 -21.4613 -0.531777 -13.2836 -23.0223 0.0507686 -12.9854 
-23.9115 -0.439378 -12.478 -23.903 -0.123259 -13.0759 -24.2941 -0.665323 -13.0147 
-22.175 -0.0504579 -14.0945 -21.4841 -0.372085 -14.0375 -23.0117 0.0163551 -14.0308 
[...]
CELL_DATA 3000
SCALARS scalars float
LOOKUP_TABLE default
18 18 18 18 18 18 18 18 18 
18 18 18 18 18 18 18 18 18 
18 18 18 18 18 18 18 18 18 
18 18 18 18 18 18 18 18 18 
18 18 18 18 18 18 18 18 18 
18 18 18 18 18 18 18 18 18 
18 18 18 18 18 18 18 18 18 
18 18 18 18 18 18 18 18 18 
18 18 18 18 18 18 18 18 18 
18 18 18 18 18 18 18 18 18 
18 18 18 18 18 18 18 18 18 
18 18 18 18 18 18 18 18 18 
18 18 18 18 18 18 18 18 18 
18 18 18 18 18 18 18 18 18 
18 18 18 18 18 18 18 18 18 
18 18 18 18 18 18 18 18 18 
18 18 18 18 18 18 18 18 18 
18 18 18 18 18 18 18 18 18 
18 18 18 18 18 18 18 18 18 
18 18 18 18 18 18 18 18 18 
18 18 18 18 18 18 18 18 18 
18 18 18 18 18 18 18 18 18 
18 18 18 18 18 18 18 18 18 
18 18 18 18 18 18 18 18 18 
18 18 18 18 18 18 18 18 18 
18 18 18 18 18 18 18 18 18 
18 18 18 18 18 18 18 18 18 
18 18 18 18 18 18 18 18 18 
18 18 18 18 18 18 18 18 18 
18 18 18 18 18 18 18 18 18 
18 18 18 18 18 18 18 18 18 
18 18 18 18 18 18 18 18 18 
18 18 18 18 18 18 18 18 18 
18 18 18 18 18 18 18 18 18 
18 18 18 18 18 18 18 18 18 
18 18 18 18 18 18 18 18 18 
18 18 18 18 18 18 18 18 18 
18 18 18 18 18 18 18 18 18 
18 18 18 18 18 18 18 18 18 
18 18 18 18 18 18 18 18 18 
18 18 18 18 18 18 18 18 18 
18 18 18 18 18 18 18 18 18 
18 18 18 18 18 18 18 18 18 
18 18 18 18 18 18 18 18 18 
18 18 18 18 18 18 18 18 18 
18 18 18 18 18 18 18 18 18 
18 18 18 18 18 18 18 18 18 
18 18 18 18 18 18 18 18 18 
18 18 18 18 18 18 18 18 18 
18 18 18 18 18 18 18 18 18 
18 18 18 18 18 18 18 18 18 
18 18 18 18 18 18 18 18 18 
18 18 18 18 18 18 18 18 18 
18 18 18 18 18 18 18 18 18 
18 18 18 18 18 18 18 18 18 
18 18 18 18 18 18 18 18 18 
18 18 18 18 18 18 18 18 18 
18 18 18 18 18 18 18 18 18 
18 18 18 18 18 18 18 18 18 
18 18 18 18 18 18 18 18 18 
18 18 18 18 18 18 18 18 18 
18 18 18 18 18 18 18 18 18 
18 18 18 18 18 18 18 18 18 
18 18 18 18 18 18 18 18 18 
18 18 18 18 18 18 18 18 18 
18 18 18 18 18 18 18 18 18 
18 18 18 18 18 18 18 18 18 
18 18 18 18 18 18 18 18 18 
18 18 18 18 18 18 18 18 18 
18 18 18 18 18 18 18 18 18 
18 18 18 18 18 18 18 18 18 
18 18 18 18 18 18 18 18 18 
18 18 18 18 18 18 18 18 18 
18 18 18 18 18 18 18 18 18 
18 18 18 18 18 18 18 18 18 
18 18 18 18 18 18 18 18 18 
18 18 18 18 18 18 18 18 18 
18 18 18 18 18 18 18 18 18 
18 18 18 18 18 18 18 18 18 
18 18 18 18 18 18 18 18 18 
18 18 18 18 18 18 18 18 18 
18 18 18 18 18 18 18 18 18 
18 18 18 18 18 18 18 18 18 
18 18 18 18 18 18 18 18 18 
18 18 18 18 18 18 18 18 18 
18 18 18 18 18 18 18 18 18 
18 18 18 18 18 18 18 18 18 
18 18 18 18 18 18 18 18 18 
18 18 18 18 18 18 18 18 18 
18 18 18 18 18 18 18 18 18 
18 18 18 18 18 18 18 18 18 
18 18 18 18 18 18 18 18 18 
18 18 18 18 18 18 18 18 18 
18 18 18 18 18 18 18 18 18 
18 18 18 18 18 18 18 18 18 
18 18 18 18 18 18 18 18 18 
18 18 18 18 18 18 18 18 18 
18 18 18 18 18 18 18 18 18 
18 18 18 18 18 18 18 18 18 
18 18 18 18 18 18 18 18 18 
18 18 18 18 18 18 18 18 18 
18 18 18 18 18 18 18 18 18 
18 18 18 18 18 18 18 18 18 
18 18 18 18 18 18 18 18 18 
18 18 18 18 18 18 18 18 18 
18 18 18 18 18 18 18 18 18 
18 18 18 18 18 18 18 18 18 
18 18 18 18 18 18 18 18 18 
18 18 18 18 18 18 18 18 18 
18 18 18 18 18 18 18 18 18 
18 18 18 18 18 18 18 18 18 
18 18 18 18 18 18 18 18 18 
18 18 18 18 18 18 18 18 18 
18 18 18 18 18 18 18 18 18 
18 18 18 18 18 18 18 18 18 
18 18 18 18 18 18 18 18 18 
18 18 18 18 18 18 18 18 18 
18 18 18 18 18 18 18 18 18 
18 18 18 18 18 18 18 18 18 
18 18 18 18 18 18 18 18 18 
18 18 18 18 18 18 18 18 18 
18 18 18 18 18 18 18 18 18 
18 18 18 18 18 18 18 18 18 
18 18 18 18 18 18 18 18 18 
18 18 18 18 18 18 18 18 18 
18 18 18 18 18 18 18 18 18 
18 18 18 18 18 18 18 18 18 
18 18 18 18 18 18 18 18 18 
18 18 18 18 18 18 18 18 18 
18 18 18 18 18 18 18 18 18 
18 18 18 18 18 18 18 18 18 
18 18 18 18 18 18 18 18 18 
18 18 18 18 18 18 18 18 18 
18 18 18 18 18 18 18 18 18 
18 18 18 18 18 18 18 18 18 
18 18 18 18 18 18 18 18 18 
18 18 18 18 18 18 18 18 18 
18 18 18 18 18 18 18 18 18 
18 18 18 18 18 18 18 18 18 
18 18 18 18 18 18 18 18 18 
18 18 18 18 18 18 18 18 18 
18 18 18 18 18 18 18 18 18 
18 18 18 18 18 18 18 18 18 
18 18 18 18 18 18 18 18 18 
18 18 18 18 18 18 18 18 18 
18 18 18 18 18 18 18 18 18 
18 18 18 18 18 18 18 18 18 
18 18 18 18 18 18 18 18 18 
18 18 18 18 18 18 18 18 18 
18 18 18 18 18 18 18 18 18 
18 18 18 18 18 18 18 18 18 
18 18 18 18 18 18 18 18 18 
18 18 18 18 18 18 18 18 18 
18 18 18 18 18 18 18 18 18 
18 18 18 18 18 18 18 18 18 
18 18 18 18 18 18 18 18 18 
18 18 18 18 18 18 18 18 18 
18 18 18 18 18 18 18 18 18 
18 18 18 18 18 18 18 18 18 
18 18 18 18 18 18 18 18 18 
18 18 18 18 18 18 18 18 18 
18 18 18 18 18 18 18 18 18 
18 18 18 18 18 18 18 18 18 
18 18 18 18 18 18 18 18 18 
18 18 18 18 18 18 18 18 18 
18 18 18 18 18 18 18 18 18 
18 18 18 18 18 18 18 18 18 
18 18 18 18 18 18 18 18 18 
18 18 18 18 18 18 18 18 18 
18 18 18 18 18 18 18 18 18 
18 18 18 18 18 18 18 18 18 
18 18 18 18 18 18 18 18 18 
18 18 18 18 18 18 18 18 18 
18 18 18 18 18 18 18 18 18 
18 18 18 18 18 18 18 18 18 
18 18 18 18 18 18 18 18 18 
18 18 18 18 18 18 18 18 18 
18 18 18 18 18 18 18 18 18 
18 18 18 18 18 18 18 18 18 
18 18 18 18 18 18 18 18 18 
18 18 18 18 18 18 18 18 18 
18 18 18 18 18 18 18 18 18 
18 18 18 18 18 18 18 18 18 
18 18 18 18 18 18 18 18 18 
18 18 18 18 18 18 18 18 18 
18 18 18 18 18 18 18 18 18 
18 18 18 18 18 18 18 18 18 
18 18 18 18 18 18 18 18 18 
18 18 18 18 18 18 18 18 18 
18 18 18 18 18 18 18 18 18 
18 18 18 18 18 18 18 18 18 
18 18 18 18 18 18 18 18 18 
18 18 18 18 18 18 18 18 18 
18 18 18 18 18 18 18 18 18 
18 18 18 18 18 18 18 18 18 
18 18 18 18 18 18 18 18 18 
18 18 18 18 18 18 18 18 18 
18 18 18 18 18 18 18 18 18 
18 18 18 18 18 18 18 18 18 
18 18 18 18 18 18 18 18 18 
18 18 18 18 18 18 18 18 18 
18 18 18 18 18 18 18 18 18 
18 18 18 18 18 18 18 18 18 
18 18 18 18 18 18 18 18 18 
18 18 18 18 18 18 18 18 18 
18 18 18 18 18 18 18 18 18 
18 18 18 18 18 18 18 18 18 
18 18 18 18 18 18 18 18 18 
18 18 18 18 18 18 18 18 18 
18 18 18 18 18 18 18 18 18 
18 18 18 18 18 18 18 18 18 
18 18 18 18 18 18 18 18 18 
18 18 18 18 18 18 18 18 18 
18 18 18 18 18 18 18 18 18 
18 18 18 18 18 18 18 18 18 
18 18 18 18 18 18 18 18 18 
18 18 18 18 18 18 18 18 18 
18 18 18 18 18 18 18 18 18 
18 18 18 18 18 18 18 18 18 
18 18 18 18 18 18 18 18 18 
18 18 18 18 18 18 18 18 18 
18 18 18 18 18 18 18 18 18 
18 18 18 18 18 18 18 18 18 
18 18 18 18 18 18 18 18 18 
18 18 18 18 18 18 18 18 18 
18 18 18 18 18 18 18 18 18 
18 18 18 18 18 18 18 18 18 
18 18 18 18 18 18 18 18 18 
18 18 18 18 18 18 18 18 18 
18 18 18 18 18 18 18 18 18 
18 18 18 18 18 18 18 18 18 
18 18 18 18 18 18 18 18 18 
18 18 18 18 18 18 18 18 18 
18 18 18 18 18 18 18 18 18 
18 18 18 18 18 18 18 18 18 
18 18 18 18 18 18 18 18 18 
18 18 18 18 18 18 18 18 18 
18 18 18 18 18 18 18 18 18 
18 18 18 18 18 18 18 18 18 
18 18 18 18 18 18 18 18 18 
18 18 18 18 18 18 18 18 18 
18 18 18 18 18 18 18 18 18 
18 18 18 18 18 18 18 18 18 
18 18 18 18 18 18 18 18 18 
18 18 18 18 18 18 18 18 18 
18 18 18 18 18 18 18 18 18 
18 18 18 18 18 18 18 18 18 
18 18 18 18 18 18 18 18 18 
18 18 18 18 18 18 18 18 18 
18 18 18 18 18 18 18 18 18 
18 18 18 18 18 18 18 18 18 
18 18 18 18 18 18 18 18 18 
18 18 18 18 18 18 18 18 18 
18 18 18 18 18 18 18 18 18 
18 18 18 18 18 18 18 18 18 
18 18 18 18 18 18 18 18 18 
18 18 18 18 18 18 18 18 18 
18 18 18 18 18 18 18 18 18 
18 18 18 18 18 18 18 18 18 
18 18 18 18 18 18 18 18 18 
18 18 18 18 18 18 18 18 18 
18 18 18 18 18 18 18 18 18 
18 18 18 18 18 18 18 18 18 
18 18 18 18 18 18 18 18 18 
18 18 18 18 18 18 18 18 18 
18 18 18 18 18 18 18 18 18 
18 18 18 18 18 18 18 18 18 
18 18 18 18 18 18 18 18 18 
18 18 18 18 18 18 18 18 18 
18 18 18 18 18 18 18 18 18 
18 18 18 18 18 18 18 18 18 
18 18 18 18 18 18 18 18 18 
18 18 18 18 18 18 18 18 18 
18 18 18 18 18 18 18 18 18 
18 18 18 18 18 18 18 18 18 
18 18 18 18 18 18 18 18 18 
18 18 18 18 18 18 18 18 18 
18 18 18 18 18 18 18 18 18 
18 18 18 18 18 18 18 18 18 
18 18 18 18 18 18 18 18 18 
18 18 18 18 18 18 18 18 18 
18 18 18 18 18 18 18 18 18 
18 18 18 18 18 18 18 18 18 
18 18 18 18 18 18 18 18 18 
18 18 18 18 18 18 18 18 18 
18 18 18 18 18 18 18 18 18 
18 18 18 18 18 18 18 18 18 
18 18 18 18 18 18 18 18 18 
18 18 18 18 18 18 18 18 18 
18 18 18 18 18 18 18 18 18 
18 18 18 18 18 18 18 18 18 
18 18 18 18 18 18 18 18 18 
18 18 18 18 18 18 18 18 18 
18 18 18 18 18 18 18 18 18 
18 18 18 18 18 18 18 18 18 
18 18 18 18 18 18 18 18 18 
18 18 18 18 18 18 18 18 18 
18 18 18 18 18 18 18 18 18 
18 18 18 18 18 18 18 18 18 
18 18 18 18 18 18 18 18 18 
18 18 18 18 18 18 18 18 18 
18 18 18 18 18 18 18 18 18 
18 18 18 18 18 18 18 18 18 
18 18 18 18 18 18 18 18 18 
18 18 18 18 18 18 18 18 18 
18 18 18 18 18 18 18 18 18 
18 18 18 18 18 18 18 18 18 
18 18 18 18 18 18 18 18 18 
18 18 18 18 18 18 18 18 18 
18 18 18 18 18 18 18 18 18 
18 18 18 18 18 18 18 18 18 
18 18 18 18 18 18 18 18 18 
18 18 18 18 18 18 18 18 18 
18 18 18 18 18 18 18 18 18 
18 18 18 18 18 18 18 18 18 
18 18 18 18 18 18 18 18 18 
18 18 18 18 18 18 18 18 18 
18 18 18 18 18 18 18 18 18 
18 18 18 18 18 18 18 18 18 
18 18 18 18 18 18 18 18 18 
18 18 18 18 18 18 18 18 18 
18 18 18 18 18 18 18 18 18 
18 18 18 18 18 18 18 18 18 
18 18 18 18 18 18 18 18 18 
18 18 18 18 18 18 18 18 18 
18 18 18 18 18 18 18 18 18 
18 18 18 18 18 18 18 18 18 
18 18 18 18 18 18 18 18 18 
18 18 18 18 18 18 18 18 18 
18 18 18 18 18 18 18 18 18 
18 18 18 18 18 18 18 18 18 
18 18 18 18 18 18 18 18 18 
18 18 18 18 18 18 18 18 18 
18 18 18 
