# vtk DataFile Version 4.0
vtk output
ASCII
DATASET POLYDATA
POINTS 604 float
4.81726 7.72908 -19.9782 4.97798 7.56955 -19.6742 5.42654 7.36552 -19.9771 
4.02446 7.76983 -20.0488 4.31983 7.57722 -19.554 2.97876 7.78319 -20.0626 
3.30094 7.56539 -19.5298 1.9694 7.7895 -20.0487 2.27337 7.56054 -19.5326 
0.981816 7.77948 -20.0335 1.12897 7.43653 -19.5443 -0.0263826 7.77879 -20.0163 
0.0209591 7.40116 -19.6729 -1.13599 7.848 -20.1189 -0.988698 7.38395 -19.6612 
-2.25744 7.94971 -20.1642 -2.00805 7.39659 -19.6551 -3.18101 7.87603 -20.3075 
-2.9435 7.38049 -19.739 -3.60983 7.35066 -19.9624 4.95461 7.43543 -20.369 
3.90093 7.45406 -20.5651 2.73891 7.58109 -20.5645 1.75189 7.58222 -20.5509 
0.769246 7.56791 -20.5231 -0.231893 7.5802 -20.528 -1.02697 7.66548 -20.6941 
-1.38217 7.40484 -21.149 -1.76157 7.90059 -20.7654 -2.70161 7.97155 -20.9121 
-3.92664 7.62357 -20.3839 -3.82935 7.86831 -20.957 -4.96363 7.81454 -21.0752 
-4.73024 7.55256 -20.5505 -6.02197 7.8452 -21.1033 -5.77867 7.56601 -20.5651 
-6.83541 7.78593 -21.1814 -6.75337 7.59105 -20.6495 -7.34478 7.30934 -20.8429 
-2.16263 7.31196 -21.4209 -3.23958 7.43495 -21.4694 -4.26704 7.42062 -21.4775 
-5.31207 7.43178 -21.4895 -6.34788 7.4489 -21.511 -7.10898 7.33936 -21.3899 
4.70592 6.82293 -18.0958 4.86114 6.16235 -17.6794 5.3092 6.54654 -18.2187 
3.76507 6.9011 -18.0779 4.01244 6.35951 -17.5945 2.75065 6.91059 -18.1235 
3.02227 6.37821 -17.6088 1.80872 6.81994 -18.269 2.07671 6.38117 -17.7024 
1.43541 6.35623 -17.9304 5.12722 7.1138 -19.1059 5.7037 6.49424 -18.8985 
4.05424 7.20079 -18.8541 3.01665 7.20842 -18.8497 2.00221 7.18785 -18.8948 
0.959514 6.31029 -18.414 1.07256 6.87871 -18.9749 0.419285 6.319 -18.9813 
5.89784 6.82909 -19.7724 6.15904 6.33122 -19.4525 6.38514 6.15304 -20.2118 
0.182082 6.76048 -19.3727 -0.769139 6.62809 -19.4335 -1.75317 6.60595 -19.3826 
-2.72289 6.61495 -19.3752 -4.3503 7.04844 -20.0334 -3.69847 6.63031 -19.52 
-5.33227 6.97063 -20.0556 -4.73174 6.44117 -19.5291 -6.36847 7.02092 -20.0675 
-5.76895 6.45035 -19.5227 -7.13227 7.04043 -20.2301 -6.75511 6.50409 -19.6081 
-7.45121 6.41165 -20.0109 5.76604 6.70931 -20.5441 4.87882 6.81004 -20.8064 
4.10802 6.84941 -21.0264 4.6476 6.31617 -21.2065 3.27373 7.029 -21.0782 
2.2766 7.05274 -21.0953 1.28985 7.0251 -21.086 0.292026 7.01108 -21.0682 
-0.654366 7.10366 -21.0898 -7.49995 6.52105 -20.9861 3.86993 6.23853 -21.4289 
2.76066 6.36187 -21.4791 1.75579 6.34441 -21.4826 0.758843 6.31864 -21.4753 
-0.235807 6.33507 -21.4671 -1.27546 6.53597 -21.5005 -2.15441 6.32443 -21.6253 
-2.98536 6.49497 -21.6322 -3.97111 6.51434 -21.6268 -4.9775 6.50964 -21.6281 
-6.01922 6.52723 -21.6433 -6.95506 6.53908 -21.5196 5.0269 5.18657 -17.6387 
5.58169 5.85517 -18.1478 3.98139 5.45626 -17.5154 3.00245 5.50342 -17.4968 
2.02453 5.50244 -17.4993 1.00652 5.99977 -17.9912 1.14028 5.56044 -17.6688 
0.513309 5.49018 -18.0325 -3.18338 5.78952 -18.2488 -2.92009 5.16191 -17.6908 
-2.37948 5.54473 -18.1657 -4.26248 5.84806 -18.1346 -3.94216 5.36016 -17.6368 
-5.30479 5.8564 -18.1153 -4.95186 5.3653 -17.6083 -6.33668 5.87749 -18.1262 
-6.00242 5.3969 -17.6083 -7.08515 5.76843 -18.2263 -6.81725 5.50755 -17.7263 
-7.31214 5.27182 -17.9638 6.00504 5.96283 -18.8491 6.2033 5.47592 -18.5667 
6.53891 5.49228 -19.4031 -0.331159 6.01966 -19.0843 0.134975 5.69998 -18.5653 
-1.26251 5.9171 -19.0477 -0.733853 5.41733 -18.5723 -2.28842 5.95108 -18.851 
-1.6427 5.44617 -18.4521 -3.16241 6.12072 -19.0029 -3.96777 6.09115 -18.8867 
-4.96925 6.09477 -18.8592 -6.01493 6.12853 -18.8578 -6.94831 6.07896 -18.9384 
-7.4994 5.47578 -18.886 6.61743 5.47413 -20.1246 -7.63701 5.48161 -20.093 
6.13403 5.96588 -20.9568 6.39039 5.33539 -20.7634 5.44726 6.08343 -21.1424 
-7.40681 5.53829 -21.0072 5.88749 5.53136 -21.2932 5.00005 5.60865 -21.4054 
4.16658 5.46205 -21.4513 3.25149 5.59689 -21.4803 2.24113 5.60292 -21.485 
1.2427 5.58206 -21.4827 0.245346 5.56678 -21.4786 -0.751814 5.58267 -21.4725 
-1.74343 5.58524 -21.4783 -2.72919 5.58106 -21.4816 -3.72446 5.59019 -21.4721 
-4.7316 5.5794 -21.4734 -5.76211 5.57889 -21.4968 -6.73811 5.58358 -21.4418 
6.76623 4.76647 -18.0432 7.10879 4.43218 -17.7496 7.47351 4.30276 -18.4204 
6.06664 5.14027 -18.0489 6.08354 4.57774 -17.5459 5.09844 4.42231 -17.3987 
4.20852 4.57037 -17.4316 3.22721 4.62051 -17.4187 2.23297 4.6134 -17.3902 
1.25079 4.6195 -17.3774 -0.312551 4.99269 -18.0578 0.157125 4.50923 -17.5266 
-1.24645 4.93237 -18.036 -0.981823 4.31797 -17.6783 -2.0322 5.14283 -17.9342 
-2.0959 4.45396 -17.65 -3.15133 4.3277 -17.5168 -3.8001 4.65982 -17.4791 
-4.66114 4.48478 -17.3447 -5.70347 4.65441 -17.3056 -6.78871 4.74606 -17.4426 
-7.47427 4.41584 -17.8894 6.8705 4.91861 -18.7082 7.33008 4.22921 -19.0499 
-7.61674 4.45897 -19.0372 6.90938 4.41466 -19.4248 6.50068 4.63993 -20.0339 
-7.42011 4.54389 -20.1435 6.09208 4.58645 -20.5921 5.74834 5.00009 -21.1102 
5.32392 4.41759 -20.604 4.79681 4.93906 -21.1193 4.3004 4.4364 -20.5666 
3.77477 4.9554 -21.1026 3.27657 4.46301 -20.5507 2.76069 4.96722 -21.0965 
2.28226 4.46683 -20.5386 1.75942 4.95513 -21.0932 1.29437 4.46926 -20.5294 
0.761795 4.94724 -21.0931 0.300911 4.47033 -20.5285 -0.236518 4.94056 -21.091 
-0.69892 4.46735 -20.5295 -1.23796 4.93736 -21.0838 -1.70414 4.46562 -20.5273 
-2.24777 4.93732 -21.0742 -2.71087 4.46616 -20.5244 -3.25949 4.93405 -21.0659 
-3.71264 4.46597 -20.5233 -4.26599 4.92823 -21.064 -4.72306 4.46401 -20.5341 
-5.29068 4.92399 -21.0843 -5.76963 4.44823 -20.5619 -6.31898 4.91427 -21.097 
-6.74359 4.41969 -20.501 -7.08603 4.91689 -20.9547 7.89059 3.83998 -15.1496 
8.1045 3.15687 -14.5581 8.58529 3.29179 -15.2785 6.80661 3.91411 -15.0541 
7.06963 3.39943 -14.5047 5.79382 3.9057 -15.0986 6.06539 3.41725 -14.5158 
4.84771 3.84744 -15.2493 5.11283 3.40976 -14.6117 4.45992 3.42036 -14.8749 
8.7611 3.86405 -15.8972 9.09663 3.56083 -15.6332 9.30544 3.64109 -16.2046 
7.91248 4.03687 -16.1251 7.04007 4.02419 -15.9946 6.02224 4.00413 -15.994 
5.0055 3.99971 -16.0526 4.19511 3.61967 -15.4174 3.9718 3.83402 -16.1711 
3.59788 3.18711 -15.861 9.01261 3.90269 -16.9963 9.43497 3.38884 -17.1696 
8.25469 4.04893 -16.827 7.17178 4.14919 -17.0314 5.99556 4.10839 -16.9003 
4.97588 4.09388 -16.9207 3.97607 4.11328 -16.9511 2.96314 3.34175 -16.5196 
2.86479 3.97691 -16.9717 1.71416 3.97687 -17.0303 1.99633 3.3445 -16.6878 
0.731186 3.9636 -17.0169 0.992996 3.34875 -16.6375 -0.0579467 3.80361 -17.0859 
0.0756992 3.33249 -16.7094 -0.569274 3.31874 -16.9596 -5.31433 3.91789 -16.962 
-5.23431 3.18828 -16.7882 -4.70805 3.64929 -17.065 -6.28443 3.98827 -16.9487 
-6.02272 3.31974 -16.6082 -7.07144 3.97303 -17.1027 -6.95956 3.34294 -16.6432 
-7.58279 3.45459 -17.1088 9.12916 3.73428 -17.8591 9.40521 3.20979 -18.1024 
8.14422 4.01316 -17.8368 -0.76222 3.72062 -17.3383 -1.70296 3.62439 -17.4254 
-2.87051 3.50278 -17.4342 -4.09281 3.56442 -17.3969 -7.73118 3.46203 -18.1277 
8.78733 3.30525 -18.413 7.9475 3.37821 -18.554 7.41338 3.50265 -18.9198 
-7.45501 3.64559 -19.2421 7.06877 3.67677 -19.3303 6.33574 3.60143 -19.564 
5.77199 3.99753 -20.0722 5.27761 3.42675 -19.5471 4.79449 3.93202 -20.0381 
4.25461 3.4781 -19.5235 3.76951 3.97424 -20.0198 3.12277 3.40718 -19.5048 
2.75593 3.98485 -20.01 2.04092 3.38409 -19.6028 1.76755 3.99471 -19.9882 
1.00538 3.35541 -19.6034 0.78424 4.00543 -19.9714 -0.011526 3.35699 -19.5976 
-0.211341 4.00383 -19.9795 -1.01002 3.34514 -19.622 -1.22062 3.99543 -19.9916 
-2.01911 3.34659 -19.6504 -2.23736 3.9921 -19.9993 -3.01663 3.33537 -19.6628 
-3.24843 3.99292 -20.0073 -4.0178 3.33157 -19.6702 -4.25464 3.99111 -20.0183 
-5.03094 3.3406 -19.6883 -5.28345 3.97471 -20.0452 -6.04451 3.30237 -19.6983 
-6.30386 3.92802 -20.0433 -6.9289 3.30815 -19.5493 -7.05102 3.92255 -19.9041 
-3.29679 2.91511 -14.0738 -3.03554 2.19147 -13.5918 -2.68217 2.59881 -14.1718 
-4.28064 2.98223 -14.1258 -3.98955 2.40129 -13.5103 -5.04883 2.82219 -14.2332 
-4.9727 2.40893 -13.617 -5.46466 2.25508 -14.0237 9.99652 2.77763 -15.0934 
9.84406 2.36985 -14.7884 10.5706 2.50991 -15.1586 9.11605 2.98652 -15.0305 
8.88853 2.5654 -14.6261 7.80329 2.47194 -14.5363 7.01355 2.61146 -14.5238 
5.98836 2.44438 -14.5003 5.04485 2.4902 -14.3781 3.96512 3.13416 -15.118 
4.13177 2.57737 -14.581 3.52111 2.50402 -15.1465 -2.92776 2.96357 -14.8302 
-2.56069 2.45234 -15.0014 -3.69164 3.01232 -15.0727 -4.68313 2.90761 -14.9221 
-5.17636 2.4845 -14.7894 10.8756 2.70236 -15.7882 11.0147 2.3819 -15.6598 
11.2406 2.47416 -16.1092 10.0359 2.74284 -15.8947 8.94825 3.25397 -16.1548 
9.12179 2.57487 -15.5136 9.73276 2.42347 -16.1012 7.8314 2.93136 -15.9901 
8.1713 2.52309 -15.3075 7.23397 2.46421 -15.5393 6.92656 2.74742 -16.2533 
6.57992 2.39454 -15.9544 3.29176 2.48121 -15.8325 -2.95338 2.84875 -16.0298 
-2.4294 2.35296 -15.9933 -3.56788 2.38608 -15.8593 -4.15857 2.49345 -15.3694 
-4.79665 2.46949 -15.2713 10.8858 2.54411 -16.2988 10.3031 2.36936 -16.3115 
9.14899 2.88202 -17.0988 8.32751 2.8258 -16.8841 7.29776 2.77626 -16.8931 
6.52439 2.46881 -16.7457 2.91928 2.56886 -16.3583 2.05888 2.49833 -16.5552 
1.01903 2.48378 -16.5086 0.00492278 2.50522 -16.5 -1.31506 3.06513 -17.0479 
-0.945636 2.53347 -16.6556 -2.25983 3.00276 -16.9041 -1.89744 2.33837 -16.5695 
-3.05408 2.93091 -17.071 -3.51097 2.21563 -17.0175 -4.78674 3.03171 -17.1029 
-5.42453 2.29827 -17.1479 -6.06985 2.44757 -16.6167 -6.79835 2.72936 -16.3896 
-8.10378 2.89228 -17.3391 -7.70734 2.6661 -16.5426 -8.49178 2.31173 -17.1056 
8.75488 2.39312 -17.641 9.37302 2.67935 -17.8418 7.75989 2.41269 -17.5552 
6.88993 2.38626 -17.4086 -3.91576 2.62854 -17.578 -4.7959 2.43984 -17.5422 
-8.0294 2.77616 -18.1171 -8.37881 2.43434 -17.8359 9.12646 2.65355 -18.3897 
8.37661 2.52805 -18.5033 7.35294 2.55845 -18.59 6.72432 2.97527 -19.0735 
6.26682 2.38428 -18.5672 5.75939 2.88984 -19.0659 5.26093 2.42587 -18.5349 
4.75481 2.96702 -19.0342 4.22934 2.50027 -18.5136 3.74452 3.00546 -19.0302 
3.06414 2.30707 -18.5235 2.92422 2.86813 -19.0673 2.42561 2.37144 -18.9338 
-7.51784 2.77088 -18.8964 -7.89691 2.08421 -18.539 2.24337 2.78252 -19.2939 
[...]
CELL_DATA 1212
SCALARS scalars float
LOOKUP_TABLE default
85 85 85 85 85 85 85 85 85 
85 85 85 85 85 85 85 85 85 
85 85 85 85 85 85 85 85 85 
85 85 85 85 85 85 85 85 85 
85 85 85 85 85 85 85 85 85 
85 85 85 85 85 85 85 85 85 
85 85 85 85 85 85 85 85 85 
85 85 85 85 85 85 85 85 85 
85 85 85 85 85 85 85 85 85 
85 85 85 85 85 85 85 85 85 
85 85 85 85 85 85 85 85 85 
85 85 85 85 85 85 85 85 85 
85 85 85 85 85 85 85 85 85 
85 85 85 85 85 85 85 85 85 
85 85 85 85 85 85 85 85 85 
85 85 85 85 85 85 85 85 85 
85 85 85 85 85 85 85 85 85 
85 85 85 85 85 85 85 85 85 
85 85 85 85 85 85 85 85 85 
85 85 85 85 85 85 85 85 85 
85 85 85 85 85 85 85 85 85 
85 85 85 85 85 85 85 85 85 
85 85 85 85 85 85 85 85 85 
85 85 85 85 85 85 85 85 85 
85 85 85 85 85 85 85 85 85 
85 85 85 85 85 85 85 85 85 
85 85 85 85 85 85 85 85 85 
85 85 85 85 85 85 85 85 85 
85 85 85 85 85 85 85 85 85 
85 85 85 85 85 85 85 85 85 
85 85 85 85 85 85 85 85 85 
85 85 85 85 85 85 85 85 85 
85 85 85 85 85 85 85 85 85 
85 85 85 85 85 85 85 85 85 
85 85 85 85 85 85 85 85 85 
85 85 85 85 85 85 85 85 85 
85 85 85 85 85 85 85 85 85 
85 85 85 85 85 85 85 85 85 
85 85 85 85 85 85 85 85 85 
85 85 85 85 85 85 85 85 85 
85 85 85 85 85 85 85 85 85 
85 85 85 85 85 85 85 85 85 
85 85 85 85 85 85 85 85 85 
85 85 85 85 85 85 85 85 85 
85 85 85 85 85 85 85 85 85 
85 85 85 85 85 85 85 85 85 
85 85 85 85 85 85 85 85 85 
85 85 85 85 85 85 85 85 85 
85 85 85 85 85 85 85 85 85 
85 85 85 85 85 85 85 85 85 
85 85 85 85 85 85 85 85 85 
85 85 85 85 85 85 85 85 85 
85 85 85 85 85 85 85 85 85 
85 85 85 85 85 85 85 85 85 
85 85 85 85 85 85 85 85 85 
85 85 85 85 85 85 85 85 85 
85 85 85 85 85 85 85 85 85 
85 85 85 85 85 85 85 85 85 
85 85 85 85 85 85 85 85 85 
85 85 85 85 85 85 85 85 85 
85 85 85 85 85 85 85 85 85 
85 85 85 85 85 85 85 85 85 
85 85 85 85 85 85 85 85 85 
85 85 85 85 85 85 85 85 85 
85 85 85 85 85 85 85 85 85 
85 85 85 85 85 85 85 85 85 
85 85 85 85 85 85 85 85 85 
85 85 85 85 85 85 85 85 85 
85 85 85 85 85 85 85 85 85 
85 85 85 85 85 85 85 85 85 
85 85 85 85 85 85 85 85 85 
85 85 85 85 85 85 85 85 85 
85 85 85 85 85 85 85 85 85 
85 85 85 85 85 85 85 85 85 
85 85 85 85 85 85 85 85 85 
85 85 85 85 85 85 85 85 85 
85 85 85 85 85 85 85 85 85 
85 85 85 85 85 85 85 85 85 
85 85 85 85 85 85 85 85 85 
85 85 85 85 85 85 85 85 85 
85 85 85 85 85 85 85 85 85 
85 85 85 85 85 85 85 85 85 
85 85 85 85 85 85 85 85 85 
85 85 85 85 85 85 85 85 85 
85 85 85 85 85 85 85 85 85 
85 85 85 85 85 85 85 85 85 
85 85 85 85 85 85 85 85 85 
85 85 85 85 85 85 85 85 85 
85 85 85 85 85 85 85 85 85 
85 85 85 85 85 85 85 85 85 
85 85 85 85 85 85 85 85 85 
85 85 85 85 85 85 85 85 85 
85 85 85 85 85 85 85 85 85 
85 85 85 85 85 85 85 85 85 
85 85 85 85 85 85 85 85 85 
85 85 85 85 85 85 85 85 85 
85 85 85 85 85 85 85 85 85 
85 85 85 85 85 85 85 85 85 
85 85 85 85 85 85 85 85 85 
85 85 85 85 85 85 85 85 85 
85 85 85 85 85 85 85 85 85 
85 85 85 85 85 85 85 85 85 
85 85 85 85 85 85 85 85 85 
85 85 85 85 85 85 85 85 85 
85 85 85 85 85 85 85 85 85 
85 85 85 85 85 85 85 85 85 
85 85 85 85 85 85 85 85 85 
85 85 85 85 85 85 85 85 85 
85 85 85 85 85 85 85 85 85 
85 85 85 85 85 85 85 85 85 
85 85 85 85 85 85 85 85 85 
85 85 85 85 85 85 85 85 85 
85 85 85 85 85 85 85 85 85 
85 85 85 85 85 85 85 85 85 
85 85 85 85 85 85 85 85 85 
85 85 85 85 85 85 85 85 85 
85 85 85 85 85 85 85 85 85 
85 85 85 85 85 85 85 85 85 
85 85 85 85 85 85 85 85 85 
85 85 85 85 85 85 85 85 85 
85 85 85 85 85 85 85 85 85 
85 85 85 85 85 85 85 85 85 
85 85 85 85 85 85 85 85 85 
85 85 85 85 85 85 85 85 85 
85 85 85 85 85 85 85 85 85 
85 85 85 85 85 85 85 85 85 
85 85 85 85 85 85 85 85 85 
85 85 85 85 85 85 85 85 85 
85 85 85 85 85 85 85 85 85 
85 85 85 85 85 85 85 85 85 
85 85 85 85 85 85 85 85 85 
85 85 85 85 85 85 85 85 85 
85 85 85 85 85 85 85 85 85 
85 85 85 85 85 85 85 85 85 
85 85 85 85 85 85 
