# vtk DataFile Version 4.0
vtk output
ASCII
DATASET POLYDATA
POINTS 1282 float
18.7274 9.90341 -1.15746 19.144 9.53939 -0.635346 19.5135 9.40817 -1.35737 
18.0188 9.84949 -1.22568 18.3284 9.6171 -0.533326 17.6547 9.49856 -0.899591 
19.0199 9.8104 -1.80326 19.2957 9.28284 -2.06542 18.3275 9.86249 -1.8913 
17.5575 9.40496 -1.94609 18.6906 9.41727 -2.35896 18.1143 9.46774 -2.37081 
19.821 8.80301 -0.00437074 19.9507 8.26095 0.47247 20.3701 8.38907 -0.0553288 
18.9284 9.07933 -0.0804099 19.0654 8.38778 0.327493 17.7281 9.05936 -0.143285 
18.0035 8.39039 0.363318 17.0225 8.77067 -0.197791 17.0748 8.37623 0.32415 
16.5452 8.33308 0.0354063 19.9159 9.01393 -0.655942 20.3827 8.19052 -1.05154 
16.9451 9.02778 -1.14157 16.4696 8.49358 -0.648314 20.0127 8.72361 -1.46953 
19.5928 8.67285 -2.09537 16.7356 9.08743 -2.19883 16.1213 8.57614 -1.33128 
15.8535 8.91544 -2.05427 14.6754 8.91554 -2.21081 15.2633 8.51232 -1.51986 
13.9238 8.78711 -2.28442 14.3096 8.51198 -1.59903 13.655 8.24571 -1.81964 
18.9047 8.64511 -2.59226 17.9916 8.84972 -2.69087 17.1015 8.85015 -2.77777 
17.5022 8.44741 -3.04604 16.0639 8.89081 -3.01781 14.9616 9.05153 -3.05757 
14.0557 8.94049 -3.05289 13.4169 8.37461 -2.76137 16.9255 8.29043 -3.40058 
15.9075 8.57811 -3.69334 15.5585 8.50909 -4.38204 15.1879 8.8916 -3.87063 
14.3229 8.88539 -4.08316 13.5175 8.55742 -3.73936 14.9428 8.72764 -4.74156 
15.3352 8.40762 -5.13064 14.4038 8.60232 -4.89734 13.8159 8.49626 -4.50042 
14.8242 8.44004 -5.31041 19.9821 7.71165 1.83101 19.9985 7.22776 2.28649 
20.3174 7.56251 1.79799 19.5628 7.36955 2.0224 20.0102 7.84573 1.16362 
20.4531 7.61396 0.95072 19.4825 7.53128 1.32917 20.5529 7.49438 -0.0163558 
19.2675 7.78738 0.68065 18.2843 7.64153 0.593219 17.1073 7.50314 0.601364 
15.7673 7.98383 -0.20877 16.075 7.55339 0.409581 14.7923 7.76229 -0.226069 
15.0664 7.32137 0.340592 14.3977 7.30993 0.162576 20.5122 7.32538 -0.872064 
15.791 8.2387 -0.974419 14.9933 8.13429 -0.896396 14.1132 7.56425 -0.368856 
14.1453 8.00076 -0.982708 13.5846 7.578 -1.04734 20.0191 8.15871 -2.13414 
20.4016 7.49193 -1.9638 13.24 7.65328 -1.96328 20.0359 7.75395 -2.82322 
20.3272 7.16351 -2.93008 19.3526 7.98512 -2.90601 18.1726 8.06842 -3.12686 
12.9963 7.67989 -2.66021 12.9495 7.96261 -3.38741 12.6415 7.23148 -2.8717 
19.7943 7.4523 -3.30073 18.9094 7.35749 -3.52319 17.7861 7.62984 -3.64734 
16.9106 7.88483 -4.10731 17.5684 7.48383 -4.32951 16.2207 8.21896 -4.01738 
13.0891 8.04287 -4.35052 12.5643 7.36991 -3.80012 16.8543 7.86661 -5.03541 
17.5158 7.5232 -5.27382 16.0072 8.12147 -4.92019 13.8847 8.18939 -5.2759 
12.9271 7.85194 -5.2209 12.5497 7.38626 -4.7849 16.8991 7.87376 -5.99198 
17.5207 7.43016 -6.04904 16.0385 8.04665 -6.01799 14.9481 8.13395 -5.9283 
13.7593 8.02412 -6.26047 13.0211 7.86152 -6.10713 12.6407 7.38176 -5.94109 
17.0436 7.44415 -6.59195 16.4665 7.1758 -7.3145 16.2418 7.85599 -6.84045 
15.2759 7.92569 -6.9528 14.0742 7.89786 -7.12177 13.0318 7.8417 -7.15686 
12.6709 7.50301 -7.12265 15.7079 7.41264 -7.52568 14.8355 7.61547 -7.38733 
14.0462 7.498 -7.59045 13.3289 7.39882 -8.0347 13.1686 7.69337 -7.93215 
12.6917 7.56109 -7.95619 12.8683 7.46795 -8.30834 20.0557 6.24154 2.43646 
20.5357 6.77448 1.85281 18.8369 6.94836 1.66264 19.1451 6.56132 2.36366 
18.4041 6.33743 2.10454 20.6705 6.64247 0.793917 18.7718 7.26095 0.952783 
18.0613 6.5539 1.65598 17.8786 6.99285 1.05112 16.9055 6.82902 0.884744 
17.2941 6.49594 1.41474 16.5542 6.15464 1.11971 20.6252 6.59323 -0.238444 
16.0301 6.54288 0.598168 14.995 6.49836 0.536984 13.6171 7.05048 -0.108152 
14.1663 6.68723 0.452844 12.9132 6.72566 -0.208617 13.2603 6.42479 0.285401 
12.6875 6.21399 -0.195965 20.6168 6.63271 -1.29266 13.0113 7.00431 -1.10984 
12.5898 6.4694 -0.809272 20.6768 6.62721 -2.33426 12.8642 7.16159 -2.12605 
12.5507 6.47959 -1.87898 20.6317 6.39764 -3.05044 12.4314 6.46283 -3.01197 
19.9344 6.58278 -3.52377 18.9305 6.81131 -4.03566 19.4115 6.10211 -4.19103 
18.2425 7.19768 -3.97906 12.4121 6.51149 -4.04357 18.8229 6.54161 -4.5861 
18.588 6.52815 -5.34428 18.1943 7.01006 -4.72382 12.5418 6.57157 -5.11806 
18.0381 6.97755 -5.72504 18.5153 6.37025 -6.06872 14.7093 6.81098 -6.1508 
15.3308 6.47233 -6.22629 14.9045 6.18459 -5.64491 14.0237 6.39535 -5.61841 
13.7239 6.88637 -6.17796 13.1056 6.40064 -5.55616 12.9439 6.93366 -5.98601 
17.802 6.49615 -6.43633 16.8868 6.51267 -6.74138 16.4343 6.37811 -7.11651 
15.0786 7.00793 -7.13342 15.643 6.27774 -7.07695 13.9175 7.12811 -7.17378 
13.0649 7.14838 -6.8358 16.1038 6.89145 -8.02831 16.2572 6.51551 -7.83196 
15.7614 6.65958 -7.88867 12.9608 7.27629 -7.85117 16.0509 6.48653 -8.26589 
20.8487 6.01162 2.07672 20.9636 5.3003 2.37187 21.4301 5.48341 1.72479 
19.8608 5.36494 2.51227 19.0109 5.51963 2.53137 17.652 6.06482 2.03063 
18.0262 5.55826 2.43339 16.9894 6.00516 1.82971 17.1829 5.51492 2.27114 
16.6924 5.43046 1.8546 21.0075 5.98564 1.33023 21.5025 5.43778 0.760107 
16.3887 5.23127 1.0998 20.9721 5.91496 0.292927 21.4521 5.42441 -0.281868 
15.8715 5.45563 0.576841 14.9701 5.48011 0.475347 13.9081 5.75548 0.439776 
13.0764 5.87594 0.148344 13.3399 5.13707 0.0415712 20.9329 5.93014 -0.765188 
21.4748 5.46699 -1.30953 12.8216 5.56331 -0.283439 12.5393 5.61184 -0.982564 
21.0991 5.96659 -1.93238 21.6718 5.55213 -2.14564 12.4372 5.4552 -2.03705 
21.7654 5.68355 -2.78339 22.1974 5.41816 -2.63589 22.2954 5.39107 -3.21236 
21.1586 5.9507 -2.8852 12.4194 5.46599 -3.04461 21.6874 5.43968 -3.47866 
20.7433 5.62032 -3.51789 19.9942 5.64697 -3.74342 19.7149 5.38924 -4.23887 
12.4259 5.48819 -4.07196 19.0475 6.14964 -4.96591 19.4886 5.55287 -5.1267 
12.5816 5.51624 -4.93862 19.0104 5.94762 -5.76102 19.4697 5.33523 -6.07368 
15.5417 5.74264 -6.16003 14.8665 5.21679 -5.57548 14 5.52348 -5.45955 
13.1251 5.55021 -5.38207 18.8113 5.44929 -6.44912 17.8738 5.34231 -6.58664 
17.0204 5.48378 -6.57059 16.2043 5.53943 -6.53954 16.0271 6.01284 -7.13732 
15.9632 6.25174 -7.887 21.8541 4.99503 1.99988 22.1099 4.37482 2.36342 
22.4894 4.51488 1.70218 21.2672 4.32425 2.63476 20.2781 4.65741 2.63245 
19.2517 4.66892 2.64601 18.069 4.50432 2.64771 16.982 4.61771 2.41647 
16.4426 4.56805 1.8433 22.1221 4.98197 1.11809 22.7088 4.5717 0.930955 
16.3099 4.49395 1.15699 22.6715 4.80417 0.0606906 23.0425 4.50089 0.471219 
23.4183 4.46205 -0.214825 21.9945 5.10568 0.147946 15.9081 4.53078 0.626655 
15.0195 4.45908 0.427524 14.0887 4.68087 0.33057 13.4375 4.12591 -0.167342 
22.8832 4.86075 -1.04437 23.5745 4.51937 -1.33495 22.1057 5.09699 -0.779408 
12.9285 4.79099 -0.563166 12.6309 4.41962 -1.35147 23.0423 4.84726 -1.89814 
23.5618 4.35726 -2.31588 22.2596 5.17404 -1.8686 12.4643 4.57936 -2.186 
22.8192 5.01463 -2.90201 23.394 4.5247 -3.18419 12.4459 4.4438 -3.01341 
22.9202 4.91399 -4.02935 23.4229 4.38956 -3.99862 22.0867 5.10589 -4.0281 
20.9942 5.06183 -4.15981 20.2247 5.14335 -3.99892 12.43 4.46525 -4.04558 
22.9244 4.84084 -4.97219 23.3721 4.21464 -5.07874 22.0721 5.01073 -5.06244 
21.0303 4.96467 -5.0652 20.1201 5.04847 -4.76186 12.5676 4.50137 -4.93516 
22.8943 4.64707 -5.66629 22.4682 4.51776 -6.26212 22.2206 4.84867 -5.81585 
21.2454 4.86811 -5.95154 20.18 4.96999 -5.85512 15.577 4.78188 -5.95588 
14.9884 4.17655 -5.58726 13.9368 4.49768 -5.49836 13.0736 4.5389 -5.41103 
21.6966 4.53601 -6.54239 20.7149 4.52037 -6.62612 19.6965 4.49822 -6.61747 
19.0401 4.49533 -6.59193 18.3421 4.42715 -6.44925 17.2843 4.58093 -6.41209 
16.3369 4.5921 -6.29775 20.6954 3.92183 3.00102 21.0553 3.15023 3.34506 
21.4869 3.65314 2.95014 19.7209 4.01033 3.01796 19.9584 3.32242 3.39889 
18.7058 3.98919 3.00751 18.9482 3.36938 3.38905 17.8534 3.79725 2.94873 
18.172 3.47388 3.26851 17.5023 3.13077 3.03268 22.8948 3.98235 2.02599 
22.9281 3.46025 2.55844 23.3601 3.35182 1.95914 22.1646 3.63017 2.75779 
16.9854 3.49998 2.68245 16.0185 3.90052 1.6697 16.0715 3.53048 2.36583 
15.4673 3.27835 2.0312 23.203 4.1067 1.05322 23.6293 3.35211 1.06671 
15.9043 3.97157 0.959692 15.4151 3.40638 1.32121 23.8628 3.89396 0.160429 
24.0545 3.17497 0.391787 24.3199 3.54668 -0.300176 15.062 3.55912 0.626601 
14.1208 3.6825 0.311017 13.5806 3.2377 -0.0654674 24.0758 4.07001 -0.797936 
24.4501 3.41948 -1.03818 13.0157 4.01549 -0.839953 13.2591 3.21902 -0.780975 
24.0854 3.95894 -1.70966 24.3457 3.17416 -1.89412 12.8824 3.50735 -1.31017 
12.5881 3.53556 -1.99145 23.9788 3.60893 -2.35164 23.6671 3.63633 -3.02566 
12.4455 3.42949 -2.97848 23.5317 3.46693 -3.98239 12.4237 3.4632 -4.0394 
23.5018 3.32857 -4.81211 12.5366 3.38036 -5.07911 23.0239 4.22628 -6.17472 
23.4355 3.52785 -5.92764 17.7139 3.8656 -5.99604 18.4042 3.52817 -6.06315 
17.8924 3.12394 -5.65514 17.1511 3.4424 -5.63852 16.7305 3.94983 -5.98569 
15.995 3.47274 -5.67174 15.8854 4.09114 -5.89 14.8355 3.50001 -5.66586 
13.951 3.64424 -5.67601 13.065 3.60273 -5.64597 23.104 3.8469 -6.85915 
23.3505 3.21702 -6.9483 22.3476 4.07434 -6.95622 21.2682 4.04058 -7.13258 
20.3186 3.92971 -7.12775 19.6818 3.56205 -7.01965 19.0505 3.47653 -6.5474 
22.7563 3.42955 -7.41628 21.7889 3.41504 -7.50036 20.7634 3.34711 -7.48441 
20.0262 3.23552 -7.35396 22.7317 2.91242 3.05999 22.8412 2.37101 3.20064 
23.3261 2.56568 2.67694 21.9926 3.15318 3.12977 21.9481 2.58053 3.30759 
20.8686 2.49494 3.34701 19.9985 2.59994 3.39436 18.9798 2.62404 3.4074 
18.093 2.80252 3.32283 17.5921 2.36119 2.95807 23.5594 2.65534 1.83445 
17.0324 2.43012 2.69062 16.0345 2.46737 2.46873 14.9073 2.81619 1.70766 
15.1987 2.68733 2.29071 14.718 2.33686 1.80182 23.7625 2.54796 1.12705 
14.761 2.90306 1.00564 14.4525 2.39551 1.06191 24.1179 2.42587 0.617984 
24.441 2.6488 -0.0779914 14.108 2.76773 0.392099 13.6434 2.55016 -0.386969 
24.5402 2.48087 -1.03355 13.5058 2.34589 -1.05313 24.3869 2.17333 -2.0844 
13.0359 2.53963 -1.47751 12.5917 2.40914 -2.09388 24.022 2.80114 -2.58849 
23.6593 2.39853 -3.35101 12.4335 2.42885 -2.96706 23.4802 2.58526 -4.15226 
12.4199 2.45682 -4.00831 23.4725 2.47224 -5.01605 12.4213 2.30151 -4.89164 
23.4938 2.49666 -6.08442 18.4757 2.72753 -5.9614 17.833 2.44757 -5.66873 
[...]
CELL_DATA 2560
SCALARS scalars float
LOOKUP_TABLE default
52 52 52 52 52 52 52 52 52 
52 52 52 52 52 52 52 52 52 
52 52 52 52 52 52 52 52 52 
52 52 52 52 52 52 52 52 52 
52 52 52 52 52 52 52 52 52 
52 52 52 52 52 52 52 52 52 
52 52 52 52 52 52 52 52 52 
52 52 52 52 52 52 52 52 52 
52 52 52 52 52 52 52 52 52 
52 52 52 52 52 52 52 52 52 
52 52 52 52 52 52 52 52 52 
52 52 52 52 52 52 52 52 52 
52 52 52 52 52 52 52 52 52 
52 52 52 52 52 52 52 52 52 
52 52 52 52 52 52 52 52 52 
52 52 52 52 52 52 52 52 52 
52 52 52 52 52 52 52 52 52 
52 52 52 52 52 52 52 52 52 
52 52 52 52 52 52 52 52 52 
52 52 52 52 52 52 52 52 52 
52 52 52 52 52 52 52 52 52 
52 52 52 52 52 52 52 52 52 
52 52 52 52 52 52 52 52 52 
52 52 52 52 52 52 52 52 52 
52 52 52 52 52 52 52 52 52 
52 52 52 52 52 52 52 52 52 
52 52 52 52 52 52 52 52 52 
52 52 52 52 52 52 52 52 52 
52 52 52 52 52 52 52 52 52 
52 52 52 52 52 52 52 52 52 
52 52 52 52 52 52 52 52 52 
52 52 52 52 52 52 52 52 52 
52 52 52 52 52 52 52 52 52 
52 52 52 52 52 52 52 52 52 
52 52 52 52 52 52 52 52 52 
52 52 52 52 52 52 52 52 52 
52 52 52 52 52 52 52 52 52 
52 52 52 52 52 52 52 52 52 
52 52 52 52 52 52 52 52 52 
52 52 52 52 52 52 52 52 52 
52 52 52 52 52 52 52 52 52 
52 52 52 52 52 52 52 52 52 
52 52 52 52 52 52 52 52 52 
52 52 52 52 52 52 52 52 52 
52 52 52 52 52 52 52 52 52 
52 52 52 52 52 52 52 52 52 
52 52 52 52 52 52 52 52 52 
52 52 52 52 52 52 52 52 52 
52 52 52 52 52 52 52 52 52 
52 52 52 52 52 52 52 52 52 
52 52 52 52 52 52 52 52 52 
52 52 52 52 52 52 52 52 52 
52 52 52 52 52 52 52 52 52 
52 52 52 52 52 52 52 52 52 
52 52 52 52 52 52 52 52 52 
52 52 52 52 52 52 52 52 52 
52 52 52 52 52 52 52 52 52 
52 52 52 52 52 52 52 52 52 
52 52 52 52 52 52 52 52 52 
52 52 52 52 52 52 52 52 52 
52 52 52 52 52 52 52 52 52 
52 52 52 52 52 52 52 52 52 
52 52 52 52 52 52 52 52 52 
52 52 52 52 52 52 52 52 52 
52 52 52 52 52 52 52 52 52 
52 52 52 52 52 52 52 52 52 
52 52 52 52 52 52 52 52 52 
52 52 52 52 52 52 52 52 52 
52 52 52 52 52 52 52 52 52 
52 52 52 52 52 52 52 52 52 
52 52 52 52 52 52 52 52 52 
52 52 52 52 52 52 52 52 52 
52 52 52 52 52 52 52 52 52 
52 52 52 52 52 52 52 52 52 
52 52 52 52 52 52 52 52 52 
52 52 52 52 52 52 52 52 52 
52 52 52 52 52 52 52 52 52 
52 52 52 52 52 52 52 52 52 
52 52 52 52 52 52 52 52 52 
52 52 52 52 52 52 52 52 52 
52 52 52 52 52 52 52 52 52 
52 52 52 52 52 52 52 52 52 
52 52 52 52 52 52 52 52 52 
52 52 52 52 52 52 52 52 52 
52 52 52 52 52 52 52 52 52 
52 52 52 52 52 52 52 52 52 
52 52 52 52 52 52 52 52 52 
52 52 52 52 52 52 52 52 52 
52 52 52 52 52 52 52 52 52 
52 52 52 52 52 52 52 52 52 
52 52 52 52 52 52 52 52 52 
52 52 52 52 52 52 52 52 52 
52 52 52 52 52 52 52 52 52 
52 52 52 52 52 52 52 52 52 
52 52 52 52 52 52 52 52 52 
52 52 52 52 52 52 52 52 52 
52 52 52 52 52 52 52 52 52 
52 52 52 52 52 52 52 52 52 
52 52 52 52 52 52 52 52 52 
52 52 52 52 52 52 52 52 52 
52 52 52 52 52 52 52 52 52 
52 52 52 52 52 52 52 52 52 
52 52 52 52 52 52 52 52 52 
52 52 52 52 52 52 52 52 52 
52 52 52 52 52 52 52 52 52 
52 52 52 52 52 52 52 52 52 
52 52 52 52 52 52 52 52 52 
52 52 52 52 52 52 52 52 52 
52 52 52 52 52 52 52 52 52 
52 52 52 52 52 52 52 52 52 
52 52 52 52 52 52 52 52 52 
52 52 52 52 52 52 52 52 52 
52 52 52 52 52 52 52 52 52 
52 52 52 52 52 52 52 52 52 
52 52 52 52 52 52 52 52 52 
52 52 52 52 52 52 52 52 52 
52 52 52 52 52 52 52 52 52 
52 52 52 52 52 52 52 52 52 
52 52 52 52 52 52 52 52 52 
52 52 52 52 52 52 52 52 52 
52 52 52 52 52 52 52 52 52 
52 52 52 52 52 52 52 52 52 
52 52 52 52 52 52 52 52 52 
52 52 52 52 52 52 52 52 52 
52 52 52 52 52 52 52 52 52 
52 52 52 52 52 52 52 52 52 
52 52 52 52 52 52 52 52 52 
52 52 52 52 52 52 52 52 52 
52 52 52 52 52 52 52 52 52 
52 52 52 52 52 52 52 52 52 
52 52 52 52 52 52 52 52 52 
52 52 52 52 52 52 52 52 52 
52 52 52 52 52 52 52 52 52 
52 52 52 52 52 52 52 52 52 
52 52 52 52 52 52 52 52 52 
52 52 52 52 52 52 52 52 52 
52 52 52 52 52 52 52 52 52 
52 52 52 52 52 52 52 52 52 
52 52 52 52 52 52 52 52 52 
52 52 52 52 52 52 52 52 52 
52 52 52 52 52 52 52 52 52 
52 52 52 52 52 52 52 52 52 
52 52 52 52 52 52 52 52 52 
52 52 52 52 52 52 52 52 52 
52 52 52 52 52 52 52 52 52 
52 52 52 52 52 52 52 52 52 
52 52 52 52 52 52 52 52 52 
52 52 52 52 52 52 52 52 52 
52 52 52 52 52 52 52 52 52 
52 52 52 52 52 52 52 52 52 
52 52 52 52 52 52 52 52 52 
52 52 52 52 52 52 52 52 52 
52 52 52 52 52 52 52 52 52 
52 52 52 52 52 52 52 52 52 
52 52 52 52 52 52 52 52 52 
52 52 52 52 52 52 52 52 52 
52 52 52 52 52 52 52 52 52 
52 52 52 52 52 52 52 52 52 
52 52 52 52 52 52 52 52 52 
52 52 52 52 52 52 52 52 52 
52 52 52 52 52 52 52 52 52 
52 52 52 52 52 52 52 52 52 
52 52 52 52 52 52 52 52 52 
52 52 52 52 52 52 52 52 52 
52 52 52 52 52 52 52 52 52 
52 52 52 52 52 52 52 52 52 
52 52 52 52 52 52 52 52 52 
52 52 52 52 52 52 52 52 52 
52 52 52 52 52 52 52 52 52 
52 52 52 52 52 52 52 52 52 
52 52 52 52 52 52 52 52 52 
52 52 52 52 52 52 52 52 52 
52 52 52 52 52 52 52 52 52 
52 52 52 52 52 52 52 52 52 
52 52 52 52 52 52 52 52 52 
52 52 52 52 52 52 52 52 52 
52 52 52 52 52 52 52 52 52 
52 52 52 52 52 52 52 52 52 
52 52 52 52 52 52 52 52 52 
52 52 52 52 52 52 52 52 52 
52 52 52 52 52 52 52 52 52 
52 52 52 52 52 52 52 52 52 
52 52 52 52 52 52 52 52 52 
52 52 52 52 52 52 52 52 52 
52 52 52 52 52 52 52 52 52 
52 52 52 52 52 52 52 52 52 
52 52 52 52 52 52 52 52 52 
52 52 52 52 52 52 52 52 52 
52 52 52 52 52 52 52 52 52 
52 52 52 52 52 52 52 52 52 
52 52 52 52 52 52 52 52 52 
52 52 52 52 52 52 52 52 52 
52 52 52 52 52 52 52 52 52 
52 52 52 52 52 52 52 52 52 
52 52 52 52 52 52 52 52 52 
52 52 52 52 52 52 52 52 52 
52 52 52 52 52 52 52 52 52 
52 52 52 52 52 52 52 52 52 
52 52 52 52 52 52 52 52 52 
52 52 52 52 52 52 52 52 52 
52 52 52 52 52 52 52 52 52 
52 52 52 52 52 52 52 52 52 
52 52 52 52 52 52 52 52 52 
52 52 52 52 52 52 52 52 52 
52 52 52 52 52 52 52 52 52 
52 52 52 52 52 52 52 52 52 
52 52 52 52 52 52 52 52 52 
52 52 52 52 52 52 52 52 52 
52 52 52 52 52 52 52 52 52 
52 52 52 52 52 52 52 52 52 
52 52 52 52 52 52 52 52 52 
52 52 52 52 52 52 52 52 52 
52 52 52 52 52 52 52 52 52 
52 52 52 52 52 52 52 52 52 
52 52 52 52 52 52 52 52 52 
52 52 52 52 52 52 52 52 52 
52 52 52 52 52 52 52 52 52 
52 52 52 52 52 52 52 52 52 
52 52 52 52 52 52 52 52 52 
52 52 52 52 52 52 52 52 52 
52 52 52 52 52 52 52 52 52 
52 52 52 52 52 52 52 52 52 
52 52 52 52 52 52 52 52 52 
52 52 52 52 52 52 52 52 52 
52 52 52 52 52 52 52 52 52 
52 52 52 52 52 52 52 52 52 
52 52 52 52 52 52 52 52 52 
52 52 52 52 52 52 52 52 52 
52 52 52 52 52 52 52 52 52 
52 52 52 52 52 52 52 52 52 
52 52 52 52 52 52 52 52 52 
52 52 52 52 52 52 52 52 52 
52 52 52 52 52 52 52 52 52 
52 52 52 52 52 52 52 52 52 
52 52 52 52 52 52 52 52 52 
52 52 52 52 52 52 52 52 52 
52 52 52 52 52 52 52 52 52 
52 52 52 52 52 52 52 52 52 
52 52 52 52 52 52 52 52 52 
52 52 52 52 52 52 52 52 52 
52 52 52 52 52 52 52 52 52 
52 52 52 52 52 52 52 52 52 
52 52 52 52 52 52 52 52 52 
52 52 52 52 52 52 52 52 52 
52 52 52 52 52 52 52 52 52 
52 52 52 52 52 52 52 52 52 
52 52 52 52 52 52 52 52 52 
52 52 52 52 52 52 52 52 52 
52 52 52 52 52 52 52 52 52 
52 52 52 52 52 52 52 52 52 
52 52 52 52 52 52 52 52 52 
52 52 52 52 52 52 52 52 52 
52 52 52 52 52 52 52 52 52 
52 52 52 52 52 52 52 52 52 
52 52 52 52 52 52 52 52 52 
52 52 52 52 52 52 52 52 52 
52 52 52 52 52 52 52 52 52 
52 52 52 52 52 52 52 52 52 
52 52 52 52 52 52 52 52 52 
52 52 52 52 52 52 52 52 52 
52 52 52 52 52 52 52 52 52 
52 52 52 52 52 52 52 52 52 
52 52 52 52 52 52 52 52 52 
52 52 52 52 52 52 52 52 52 
52 52 52 52 52 52 52 52 52 
52 52 52 52 52 52 52 52 52 
52 52 52 52 52 52 52 52 52 
52 52 52 52 52 52 52 52 52 
52 52 52 52 52 52 52 52 52 
52 52 52 52 52 52 52 52 52 
52 52 52 52 52 52 52 52 52 
52 52 52 52 52 52 52 52 52 
52 52 52 52 52 52 52 52 52 
52 52 52 52 52 52 52 52 52 
52 52 52 52 52 52 52 52 52 
52 52 52 52 52 52 52 52 52 
52 52 52 52 52 52 52 52 52 
52 52 52 52 52 52 52 52 52 
52 52 52 52 52 52 52 52 52 
52 52 52 52 52 52 52 52 52 
52 52 52 52 52 52 52 52 52 
52 52 52 52 52 52 52 52 52 
52 52 52 52 52 52 52 52 52 
52 52 52 52 52 52 52 52 52 
52 52 52 52 
