# vtk DataFile Version 4.0
vtk output
ASCII
DATASET POLYDATA
POINTS 1658 float
25.7405 5.83891 -18.0865 25.9677 5.2125 -17.6789 26.3454 5.52544 -18.214 
24.8019 5.93174 -18.1082 25.0877 5.40293 -17.5771 23.8417 5.84775 -18.2355 
24.1408 5.40465 -17.6744 23.4613 5.379 -17.8932 25.9485 5.83295 -18.8865 
26.4546 5.34674 -18.9198 25.092 6.06252 -18.9357 24.0348 6.07636 -18.9837 
23.1129 5.62419 -18.3033 22.917 5.93391 -19.0107 22.022 5.77876 -19.2288 
22.3542 5.54224 -18.5475 21.6803 5.46092 -18.9079 25.9231 5.58386 -19.5689 
25.6059 5.51806 -20.3569 25.1039 5.90834 -19.9389 24.0413 6.07057 -19.9888 
22.9844 6.05674 -20.024 22.0895 5.87978 -20.0235 21.4724 5.5319 -19.7561 
24.8459 5.87486 -21.0484 25.5124 5.51224 -21.3135 23.9585 6.0496 -21.024 
22.932 6.06096 -21.0742 22.086 5.89458 -21.0717 21.474 5.40945 -20.9355 
24.8845 5.87668 -22.0446 25.5379 5.50834 -22.3066 23.9835 6.05061 -22.0331 
22.9431 6.06795 -22.0823 22.0744 5.89151 -22.1026 21.6268 5.50707 -21.9173 
25.0282 5.75583 -22.8139 25.3647 5.42299 -23.1315 24.267 5.89464 -22.8941 
23.2143 5.93246 -22.9406 22.2464 5.8256 -22.9788 21.6434 5.26317 -22.8846 
24.685 5.50967 -23.4823 23.7212 5.53678 -23.5811 22.6977 5.5193 -23.6085 
21.9631 5.33939 -23.5713 26.1666 4.53608 -17.5271 26.6443 4.84282 -18.1384 
25.3295 4.64959 -17.3217 24.3131 4.68393 -17.3116 22.7106 5.10526 -17.966 
23.1587 4.56547 -17.4836 21.7244 5.03242 -18.1496 21.9891 4.36795 -17.6361 
20.736 4.90221 -18.1104 20.9694 4.35249 -17.5962 20.0009 4.79741 -18.1547 
20.0449 4.38929 -17.6252 19.4813 4.39793 -17.9365 26.8797 4.85042 -19.0529 
27.1361 4.33268 -18.3988 27.3212 4.30067 -19.1019 20.9848 5.16604 -19.1184 
20.1432 4.91112 -18.9656 19.4659 4.55023 -18.6977 26.8941 4.84541 -19.9849 
27.3481 4.30594 -20.0409 26.3194 5.20429 -19.8085 20.8776 5.13257 -20.3171 
20.1572 4.88138 -20.022 19.4551 4.54891 -19.7293 26.8743 4.84317 -20.9716 
27.3331 4.31899 -21.0506 26.1923 5.15325 -20.7475 21.0041 4.89496 -21.1508 
20.3446 4.74381 -20.9106 19.5683 4.49554 -20.689 26.8776 4.83807 -22.0026 
27.4736 4.3585 -22.141 26.1744 5.15188 -21.749 21.331 4.80187 -21.9974 
20.6974 4.44963 -21.6085 19.9441 4.37915 -21.347 27.0127 4.86794 -23.144 
27.6902 4.57904 -23.0736 26.0503 5.11785 -22.9188 21.3561 4.46005 -22.875 
28.7028 4.78111 -24.1321 29.1165 4.41243 -23.6829 29.4648 4.48011 -24.3346 
27.7518 4.88633 -23.9479 28.3605 4.5071 -23.4278 26.851 4.98848 -24.1805 
26.0164 5.0018 -24.0403 25.0598 5.11258 -23.9919 24.1614 5.15985 -24.0748 
23.2721 4.98084 -24.2375 22.3182 4.90441 -24.0463 21.5736 4.60893 -23.6906 
28.9073 4.86038 -24.9964 29.5443 4.47784 -25.2649 28.0285 5.01077 -24.9748 
27.0017 5.01967 -25.0239 25.9719 5.01327 -25.0504 24.9873 4.97984 -25.0596 
24.0347 4.84853 -24.9217 23.3433 4.51893 -24.9288 22.6976 4.43835 -24.5896 
21.9496 4.36542 -24.3292 28.8791 4.85826 -25.9943 29.4832 4.47414 -26.2766 
28.0291 5.02979 -25.995 27.0054 5.03983 -26.0455 25.97 5.01724 -26.0599 
25.1239 4.99234 -25.9335 24.3134 4.78686 -26.0858 23.5656 4.43775 -25.6801 
28.8235 4.87599 -27.0435 29.4826 4.5179 -27.3041 27.9714 5.04219 -27.0235 
26.9841 5.03613 -27.0768 26.1184 5.00364 -26.9468 25.1723 4.83792 -27.0142 
24.3979 4.53685 -26.884 23.8419 4.3858 -26.4347 29.0102 4.91149 -28.1547 
29.6767 4.60277 -28.1255 28.0016 5.03954 -28.0426 27.1405 5.03372 -27.9311 
26.1807 4.84355 -28.0232 25.4126 4.53542 -27.8874 24.8275 4.41366 -27.4459 
29.7572 4.76738 -28.8035 30.1682 4.45772 -28.6254 30.2849 4.46949 -29.2251 
29.1741 4.88121 -29.0357 28.286 4.90904 -28.941 27.1733 4.84186 -28.8417 
26.4219 4.54791 -28.9057 25.8368 4.41457 -28.4813 29.7355 4.56437 -29.5078 
28.7953 4.56409 -29.5944 27.7386 4.52814 -29.583 26.8937 4.43748 -29.4169 
26.7366 3.72822 -17.0067 27.0697 3.1361 -16.7061 27.4433 3.48963 -17.3177 
25.8707 3.99067 -17.0833 25.9792 3.32582 -16.6766 24.6984 4.00119 -16.9778 
24.9489 3.32472 -16.6725 23.6963 4.00431 -16.9964 23.9531 3.34801 -16.6595 
22.8852 3.80625 -17.1148 23.1958 3.45444 -16.7832 22.5526 3.12745 -17.0495 
26.8784 4.0687 -17.6393 27.5431 3.63546 -18.2721 22.0542 3.51479 -17.4318 
20.9926 3.45005 -17.4991 19.9521 3.49788 -17.4516 18.9337 3.95653 -18.2754 
19.2049 3.71634 -17.6411 18.6702 3.25484 -17.9761 27.6249 3.56777 -19.3055 
18.7452 4.05649 -19.2961 18.4356 3.28232 -18.7848 27.592 3.57585 -20.2981 
18.8278 4.17381 -20.3273 18.1173 3.5615 -19.5281 18.0932 3.8307 -20.1012 
17.7208 3.31853 -20.014 27.6432 3.69852 -21.2451 19.1948 4.13187 -21.2477 
18.3183 3.83894 -21.0775 17.5414 3.34336 -20.6711 30.7301 3.82541 -22.1616 
31.0498 3.37819 -21.5028 31.3252 3.39552 -22.0701 29.7285 3.86025 -22.1972 
30.3074 3.52035 -21.5354 28.6554 3.81457 -22.1812 29.2326 3.46087 -21.5789 
27.9152 3.86408 -21.9648 28.2476 3.42205 -21.4917 20.8739 4.15217 -22.3743 
19.9046 4.06307 -22.048 18.9151 3.84245 -22.0285 18.3275 3.58309 -21.915 
17.8123 3.45926 -21.4182 31.0368 3.92481 -23.1163 31.5763 3.39611 -22.9128 
30.1865 4.02881 -22.8533 29.1191 4.11931 -23.0025 28.1043 4.18454 -22.6856 
20.8846 4.07712 -23.2958 20.0247 3.94192 -23.0475 19.1619 3.80834 -22.9938 
18.495 3.4978 -22.7527 31.6907 3.8525 -23.979 32.1869 3.17875 -23.5624 
32.4744 3.55448 -24.3397 30.8821 4.02094 -24.1643 30.0167 4.1343 -23.7301 
21.0503 4.07641 -24.2895 20.0198 3.94956 -24.046 19.1587 3.8114 -23.9979 
18.4973 3.48605 -23.7499 31.8803 3.88445 -25.0525 32.5628 3.55224 -25.2701 
31.0261 4.00323 -25.0146 30.1863 4.13414 -24.7504 22.8572 4.15489 -25.3201 
21.8584 4.06873 -25.0206 20.8111 3.99113 -25.1932 20.1512 3.9703 -24.8964 
19.3239 3.79832 -25.0778 18.5434 3.48291 -24.7039 31.8737 3.78736 -25.9691 
32.46 3.50697 -25.9142 31.0019 3.98296 -26.0089 30.1695 4.1222 -25.7471 
23.0401 4.08159 -26.2826 22.0108 3.99546 -26.0096 20.9983 3.99854 -26.0326 
20.0013 3.89312 -25.9381 19.3045 3.58394 -26.0015 18.7983 3.42431 -25.4928 
32.1165 3.37101 -26.513 31.5459 3.46217 -27.3348 31.0398 3.86441 -26.9615 
30.1209 4.12955 -26.7577 23.9276 4.12633 -27.2197 22.8495 3.98592 -27.1559 
22.161 3.98308 -26.8454 21.3118 3.8766 -27.0702 20.341 3.79785 -26.9096 
19.5593 3.52748 -26.7473 30.9629 3.8481 -27.8865 31.4632 3.51423 -28.2897 
30.224 4.1864 -27.8471 24.9307 4.1339 -28.2366 23.8471 3.99372 -28.178 
23.1447 3.97711 -27.8555 22.1885 3.83693 -27.9628 21.5181 3.34504 -28.0045 
20.7779 3.25707 -27.5291 19.7975 3.25677 -27.3576 30.7911 4.04509 -28.9312 
31.5229 3.5516 -29.3354 25.9482 4.14606 -29.2631 24.8765 3.98937 -29.1993 
24.0066 3.97884 -29.0268 22.9892 3.88517 -28.889 22.2942 3.581 -28.9919 
21.9127 3.32707 -28.6356 31.0791 3.82885 -29.8709 31.5352 3.38616 -30.1169 
30.3569 4.06547 -29.9094 29.3402 4.06418 -30.0738 28.1564 4.05312 -30.2033 
26.9146 4.13852 -30.0825 26.0512 4.01311 -30.0826 25.2997 3.88341 -30.1122 
24.2468 3.85347 -29.912 23.304 3.80462 -29.8869 22.5303 3.52354 -29.7652 
30.8713 3.3077 -30.4536 29.8186 3.40858 -30.439 28.8001 3.41098 -30.4398 
27.9977 3.51749 -30.6614 27.5071 3.20042 -31.0841 27.265 3.82416 -30.8384 
26.2061 3.83648 -30.8453 25.4431 3.58986 -30.9406 24.6864 3.53015 -30.6554 
23.7252 3.52055 -30.5695 22.8935 3.45972 -30.4297 26.7511 3.38097 -31.3977 
25.8441 3.26199 -31.4152 30.7595 2.8492 -17.083 30.9852 2.19645 -16.6329 
31.3819 2.56328 -17.1673 29.7772 2.88895 -17.1286 30.0938 2.40113 -16.5779 
28.7574 2.86843 -17.1214 29.2034 2.52909 -16.6552 27.9345 3.05758 -17.0154 
28.1511 2.46076 -16.521 27.1457 2.48749 -16.3777 26.2619 2.62294 -16.4175 
25.2489 2.61302 -16.4029 24.2399 2.60046 -16.395 23.2121 2.68226 -16.5479 
22.4737 2.46843 -16.8938 31.0002 2.92801 -17.9649 31.5088 2.42085 -17.9496 
30.0723 3.02245 -18.002 29.0235 2.97283 -17.9853 28.1482 3.12183 -17.7373 
21.9999 2.69441 -17.3088 21.2528 2.61493 -17.3956 20.042 2.45852 -17.3863 
19.0602 2.75968 -17.6004 18.5807 2.45287 -18.1351 30.9738 2.87979 -19.0233 
31.4612 2.36097 -18.9928 30.0667 2.9923 -19.0641 29.0138 2.94012 -19.0356 
28.1525 3.07576 -18.7462 18.3459 2.22204 -18.9001 30.9113 2.8799 -20.0411 
31.3999 2.37411 -20.014 30.0025 2.9828 -20.0926 28.9415 2.91988 -20.0672 
28.0846 3.03421 -19.7782 17.9875 2.81257 -19.5335 17.4745 2.43626 -20.1447 
30.9281 3.03228 -20.8772 31.39 2.56088 -21.0718 30.0349 3.14567 -20.9239 
28.958 3.07172 -20.9336 28.0616 3.11865 -20.7237 17.0523 2.60196 -20.6755 
17.1323 2.97846 -21.3449 16.71 2.28834 -20.9978 31.4652 2.52532 -22.0248 
17.7401 3.21015 -22.2249 16.9841 2.86635 -22.1779 16.6055 2.3712 -21.7226 
31.6526 2.55392 -22.8678 17.8408 3.15558 -23.3219 17.1079 2.87799 -23.0467 
16.6102 2.37289 -22.7258 33.0454 3.05254 -24.1509 33.0981 2.39329 -23.6998 
33.6373 2.61554 -24.165 32.2164 2.27534 -23.3537 17.8135 3.15745 -24.3292 
17.0835 2.87534 -24.0711 16.6156 2.35891 -23.7626 33.7649 2.87862 -24.9239 
34.1554 2.38503 -24.4343 34.4081 2.38275 -25.1073 33.069 3.23475 -24.844 
17.9934 3.13928 -25.3578 17.079 2.90405 -25.0792 16.5714 2.37009 -24.7773 
34.0774 2.76115 -25.7909 34.4084 2.18059 -26.1064 33.1564 3.07818 -25.8407 
18.7345 3.19872 -26.2438 17.9755 3.02465 -26.0784 17.2943 2.84972 -26.1201 
16.6338 2.40606 -25.7314 33.7381 2.49772 -26.4725 32.8276 2.66925 -26.65 
32.1289 2.94967 -27.004 32.5578 2.43756 -27.322 19.0483 3.10808 -27.0668 
18.1158 2.85293 -26.8648 17.4227 2.40078 -27.0866 16.9145 2.21532 -26.5253 
31.9642 2.95427 -27.7431 32.4714 2.457 -28.2779 21.2781 2.71521 -27.9729 
20.808 2.48501 -27.7463 20.0041 2.62179 -27.6645 18.8629 2.63048 -27.5873 
17.9355 2.36169 -27.5942 31.9776 3.00702 -28.7864 32.5151 2.49013 -29.3626 
21.975 3.07377 -29.3984 21.5141 2.64518 -28.7223 32.0069 2.95626 -29.7972 
32.524 2.33234 -30.1594 22.1732 3.03452 -30.3806 21.4791 2.50334 -29.8169 
31.8161 2.43538 -30.5038 30.8403 2.33922 -30.6654 29.997 2.49297 -30.6316 
29.0062 2.49761 -30.567 28.0352 2.60062 -30.6643 27.3929 2.43651 -30.9676 
25.1054 3.18911 -31.197 24.2792 3.04203 -31.1058 23.1221 3.03859 -31.0006 
22.24 2.80982 -31.1112 21.5413 2.53656 -30.8027 27.0484 2.77095 -31.3437 
26.1478 2.54211 -31.4714 24.9666 2.5207 -31.4915 23.7811 2.39425 -31.4519 
22.7284 2.4035 -31.475 21.7629 2.28726 -31.4237 26.7595 1.8329 -14.0914 
[...]
CELL_DATA 3312
SCALARS scalars float
LOOKUP_TABLE default
54 54 54 54 54 54 54 54 54 
54 54 54 54 54 54 54 54 54 
54 54 54 54 54 54 54 54 54 
54 54 54 54 54 54 54 54 54 
54 54 54 54 54 54 54 54 54 
54 54 54 54 54 54 54 54 54 
54 54 54 54 54 54 54 54 54 
54 54 54 54 54 54 54 54 54 
54 54 54 54 54 54 54 54 54 
54 54 54 54 54 54 54 54 54 
54 54 54 54 54 54 54 54 54 
54 54 54 54 54 54 54 54 54 
54 54 54 54 54 54 54 54 54 
54 54 54 54 54 54 54 54 54 
54 54 54 54 54 54 54 54 54 
54 54 54 54 54 54 54 54 54 
54 54 54 54 54 54 54 54 54 
54 54 54 54 54 54 54 54 54 
54 54 54 54 54 54 54 54 54 
54 54 54 54 54 54 54 54 54 
54 54 54 54 54 54 54 54 54 
54 54 54 54 54 54 54 54 54 
54 54 54 54 54 54 54 54 54 
54 54 54 54 54 54 54 54 54 
54 54 54 54 54 54 54 54 54 
54 54 54 54 54 54 54 54 54 
54 54 54 54 54 54 54 54 54 
54 54 54 54 54 54 54 54 54 
54 54 54 54 54 54 54 54 54 
54 54 54 54 54 54 54 54 54 
54 54 54 54 54 54 54 54 54 
54 54 54 54 54 54 54 54 54 
54 54 54 54 54 54 54 54 54 
54 54 54 54 54 54 54 54 54 
54 54 54 54 54 54 54 54 54 
54 54 54 54 54 54 54 54 54 
54 54 54 54 54 54 54 54 54 
54 54 54 54 54 54 54 54 54 
54 54 54 54 54 54 54 54 54 
54 54 54 54 54 54 54 54 54 
54 54 54 54 54 54 54 54 54 
54 54 54 54 54 54 54 54 54 
54 54 54 54 54 54 54 54 54 
54 54 54 54 54 54 54 54 54 
54 54 54 54 54 54 54 54 54 
54 54 54 54 54 54 54 54 54 
54 54 54 54 54 54 54 54 54 
54 54 54 54 54 54 54 54 54 
54 54 54 54 54 54 54 54 54 
54 54 54 54 54 54 54 54 54 
54 54 54 54 54 54 54 54 54 
54 54 54 54 54 54 54 54 54 
54 54 54 54 54 54 54 54 54 
54 54 54 54 54 54 54 54 54 
54 54 54 54 54 54 54 54 54 
54 54 54 54 54 54 54 54 54 
54 54 54 54 54 54 54 54 54 
54 54 54 54 54 54 54 54 54 
54 54 54 54 54 54 54 54 54 
54 54 54 54 54 54 54 54 54 
54 54 54 54 54 54 54 54 54 
54 54 54 54 54 54 54 54 54 
54 54 54 54 54 54 54 54 54 
54 54 54 54 54 54 54 54 54 
54 54 54 54 54 54 54 54 54 
54 54 54 54 54 54 54 54 54 
54 54 54 54 54 54 54 54 54 
54 54 54 54 54 54 54 54 54 
54 54 54 54 54 54 54 54 54 
54 54 54 54 54 54 54 54 54 
54 54 54 54 54 54 54 54 54 
54 54 54 54 54 54 54 54 54 
54 54 54 54 54 54 54 54 54 
54 54 54 54 54 54 54 54 54 
54 54 54 54 54 54 54 54 54 
54 54 54 54 54 54 54 54 54 
54 54 54 54 54 54 54 54 54 
54 54 54 54 54 54 54 54 54 
54 54 54 54 54 54 54 54 54 
54 54 54 54 54 54 54 54 54 
54 54 54 54 54 54 54 54 54 
54 54 54 54 54 54 54 54 54 
54 54 54 54 54 54 54 54 54 
54 54 54 54 54 54 54 54 54 
54 54 54 54 54 54 54 54 54 
54 54 54 54 54 54 54 54 54 
54 54 54 54 54 54 54 54 54 
54 54 54 54 54 54 54 54 54 
54 54 54 54 54 54 54 54 54 
54 54 54 54 54 54 54 54 54 
54 54 54 54 54 54 54 54 54 
54 54 54 54 54 54 54 54 54 
54 54 54 54 54 54 54 54 54 
54 54 54 54 54 54 54 54 54 
54 54 54 54 54 54 54 54 54 
54 54 54 54 54 54 54 54 54 
54 54 54 54 54 54 54 54 54 
54 54 54 54 54 54 54 54 54 
54 54 54 54 54 54 54 54 54 
54 54 54 54 54 54 54 54 54 
54 54 54 54 54 54 54 54 54 
54 54 54 54 54 54 54 54 54 
54 54 54 54 54 54 54 54 54 
54 54 54 54 54 54 54 54 54 
54 54 54 54 54 54 54 54 54 
54 54 54 54 54 54 54 54 54 
54 54 54 54 54 54 54 54 54 
54 54 54 54 54 54 54 54 54 
54 54 54 54 54 54 54 54 54 
54 54 54 54 54 54 54 54 54 
54 54 54 54 54 54 54 54 54 
54 54 54 54 54 54 54 54 54 
54 54 54 54 54 54 54 54 54 
54 54 54 54 54 54 54 54 54 
54 54 54 54 54 54 54 54 54 
54 54 54 54 54 54 54 54 54 
54 54 54 54 54 54 54 54 54 
54 54 54 54 54 54 54 54 54 
54 54 54 54 54 54 54 54 54 
54 54 54 54 54 54 54 54 54 
54 54 54 54 54 54 54 54 54 
54 54 54 54 54 54 54 54 54 
54 54 54 54 54 54 54 54 54 
54 54 54 54 54 54 54 54 54 
54 54 54 54 54 54 54 54 54 
54 54 54 54 54 54 54 54 54 
54 54 54 54 54 54 54 54 54 
54 54 54 54 54 54 54 54 54 
54 54 54 54 54 54 54 54 54 
54 54 54 54 54 54 54 54 54 
54 54 54 54 54 54 54 54 54 
54 54 54 54 54 54 54 54 54 
54 54 54 54 54 54 54 54 54 
54 54 54 54 54 54 54 54 54 
54 54 54 54 54 54 54 54 54 
54 54 54 54 54 54 54 54 54 
54 54 54 54 54 54 54 54 54 
54 54 54 54 54 54 54 54 54 
54 54 54 54 54 54 54 54 54 
54 54 54 54 54 54 54 54 54 
54 54 54 54 54 54 54 54 54 
54 54 54 54 54 54 54 54 54 
54 54 54 54 54 54 54 54 54 
54 54 54 54 54 54 54 54 54 
54 54 54 54 54 54 54 54 54 
54 54 54 54 54 54 54 54 54 
54 54 54 54 54 54 54 54 54 
54 54 54 54 54 54 54 54 54 
54 54 54 54 54 54 54 54 54 
54 54 54 54 54 54 54 54 54 
54 54 54 54 54 54 54 54 54 
54 54 54 54 54 54 54 54 54 
54 54 54 54 54 54 54 54 54 
54 54 54 54 54 54 54 54 54 
54 54 54 54 54 54 54 54 54 
54 54 54 54 54 54 54 54 54 
54 54 54 54 54 54 54 54 54 
54 54 54 54 54 54 54 54 54 
54 54 54 54 54 54 54 54 54 
54 54 54 54 54 54 54 54 54 
54 54 54 54 54 54 54 54 54 
54 54 54 54 54 54 54 54 54 
54 54 54 54 54 54 54 54 54 
54 54 54 54 54 54 54 54 54 
54 54 54 54 54 54 54 54 54 
54 54 54 54 54 54 54 54 54 
54 54 54 54 54 54 54 54 54 
54 54 54 54 54 54 54 54 54 
54 54 54 54 54 54 54 54 54 
54 54 54 54 54 54 54 54 54 
54 54 54 54 54 54 54 54 54 
54 54 54 54 54 54 54 54 54 
54 54 54 54 54 54 54 54 54 
54 54 54 54 54 54 54 54 54 
54 54 54 54 54 54 54 54 54 
54 54 54 54 54 54 54 54 54 
54 54 54 54 54 54 54 54 54 
54 54 54 54 54 54 54 54 54 
54 54 54 54 54 54 54 54 54 
54 54 54 54 54 54 54 54 54 
54 54 54 54 54 54 54 54 54 
54 54 54 54 54 54 54 54 54 
54 54 54 54 54 54 54 54 54 
54 54 54 54 54 54 54 54 54 
54 54 54 54 54 54 54 54 54 
54 54 54 54 54 54 54 54 54 
54 54 54 54 54 54 54 54 54 
54 54 54 54 54 54 54 54 54 
54 54 54 54 54 54 54 54 54 
54 54 54 54 54 54 54 54 54 
54 54 54 54 54 54 54 54 54 
54 54 54 54 54 54 54 54 54 
54 54 54 54 54 54 54 54 54 
54 54 54 54 54 54 54 54 54 
54 54 54 54 54 54 54 54 54 
54 54 54 54 54 54 54 54 54 
54 54 54 54 54 54 54 54 54 
54 54 54 54 54 54 54 54 54 
54 54 54 54 54 54 54 54 54 
54 54 54 54 54 54 54 54 54 
54 54 54 54 54 54 54 54 54 
54 54 54 54 54 54 54 54 54 
54 54 54 54 54 54 54 54 54 
54 54 54 54 54 54 54 54 54 
54 54 54 54 54 54 54 54 54 
54 54 54 54 54 54 54 54 54 
54 54 54 54 54 54 54 54 54 
54 54 54 54 54 54 54 54 54 
54 54 54 54 54 54 54 54 54 
54 54 54 54 54 54 54 54 54 
54 54 54 54 54 54 54 54 54 
54 54 54 54 54 54 54 54 54 
54 54 54 54 54 54 54 54 54 
54 54 54 54 54 54 54 54 54 
54 54 54 54 54 54 54 54 54 
54 54 54 54 54 54 54 54 54 
54 54 54 54 54 54 54 54 54 
54 54 54 54 54 54 54 54 54 
54 54 54 54 54 54 54 54 54 
54 54 54 54 54 54 54 54 54 
54 54 54 54 54 54 54 54 54 
54 54 54 54 54 54 54 54 54 
54 54 54 54 54 54 54 54 54 
54 54 54 54 54 54 54 54 54 
54 54 54 54 54 54 54 54 54 
54 54 54 54 54 54 54 54 54 
54 54 54 54 54 54 54 54 54 
54 54 54 54 54 54 54 54 54 
54 54 54 54 54 54 54 54 54 
54 54 54 54 54 54 54 54 54 
54 54 54 54 54 54 54 54 54 
54 54 54 54 54 54 54 54 54 
54 54 54 54 54 54 54 54 54 
54 54 54 54 54 54 54 54 54 
54 54 54 54 54 54 54 54 54 
54 54 54 54 54 54 54 54 54 
54 54 54 54 54 54 54 54 54 
54 54 54 54 54 54 54 54 54 
54 54 54 54 54 54 54 54 54 
54 54 54 54 54 54 54 54 54 
54 54 54 54 54 54 54 54 54 
54 54 54 54 54 54 54 54 54 
54 54 54 54 54 54 54 54 54 
54 54 54 54 54 54 54 54 54 
54 54 54 54 54 54 54 54 54 
54 54 54 54 54 54 54 54 54 
54 54 54 54 54 54 54 54 54 
54 54 54 54 54 54 54 54 54 
54 54 54 54 54 54 54 54 54 
54 54 54 54 54 54 54 54 54 
54 54 54 54 54 54 54 54 54 
54 54 54 54 54 54 54 54 54 
54 54 54 54 54 54 54 54 54 
54 54 54 54 54 54 54 54 54 
54 54 54 54 54 54 54 54 54 
54 54 54 54 54 54 54 54 54 
54 54 54 54 54 54 54 54 54 
54 54 54 54 54 54 54 54 54 
54 54 54 54 54 54 54 54 54 
54 54 54 54 54 54 54 54 54 
54 54 54 54 54 54 54 54 54 
54 54 54 54 54 54 54 54 54 
54 54 54 54 54 54 54 54 54 
54 54 54 54 54 54 54 54 54 
54 54 54 54 54 54 54 54 54 
54 54 54 54 54 54 54 54 54 
54 54 54 54 54 54 54 54 54 
54 54 54 54 54 54 54 54 54 
54 54 54 54 54 54 54 54 54 
54 54 54 54 54 54 54 54 54 
54 54 54 54 54 54 54 54 54 
54 54 54 54 54 54 54 54 54 
54 54 54 54 54 54 54 54 54 
54 54 54 54 54 54 54 54 54 
54 54 54 54 54 54 54 54 54 
54 54 54 54 54 54 54 54 54 
54 54 54 54 54 54 54 54 54 
54 54 54 54 54 54 54 54 54 
54 54 54 54 54 54 54 54 54 
54 54 54 54 54 54 54 54 54 
54 54 54 54 54 54 54 54 54 
54 54 54 54 54 54 54 54 54 
54 54 54 54 54 54 54 54 54 
54 54 54 54 54 54 54 54 54 
54 54 54 54 54 54 54 54 54 
54 54 54 54 54 54 54 54 54 
54 54 54 54 54 54 54 54 54 
54 54 54 54 54 54 54 54 54 
54 54 54 54 54 54 54 54 54 
54 54 54 54 54 54 54 54 54 
54 54 54 54 54 54 54 54 54 
54 54 54 54 54 54 54 54 54 
54 54 54 54 54 54 54 54 54 
54 54 54 54 54 54 54 54 54 
54 54 54 54 54 54 54 54 54 
54 54 54 54 54 54 54 54 54 
54 54 54 54 54 54 54 54 54 
54 54 54 54 54 54 54 54 54 
54 54 54 54 54 54 54 54 54 
54 54 54 54 54 54 54 54 54 
54 54 54 54 54 54 54 54 54 
54 54 54 54 54 54 54 54 54 
54 54 54 54 54 54 54 54 54 
54 54 54 54 54 54 54 54 54 
54 54 54 54 54 54 54 54 54 
54 54 54 54 54 54 54 54 54 
54 54 54 54 54 54 54 54 54 
54 54 54 54 54 54 54 54 54 
54 54 54 54 54 54 54 54 54 
54 54 54 54 54 54 54 54 54 
54 54 54 54 54 54 54 54 54 
54 54 54 54 54 54 54 54 54 
54 54 54 54 54 54 54 54 54 
54 54 54 54 54 54 54 54 54 
54 54 54 54 54 54 54 54 54 
54 54 54 54 54 54 54 54 54 
54 54 54 54 54 54 54 54 54 
54 54 54 54 54 54 54 54 54 
54 54 54 54 54 54 54 54 54 
54 54 54 54 54 54 54 54 54 
54 54 54 54 54 54 54 54 54 
54 54 54 54 54 54 54 54 54 
54 54 54 54 54 54 54 54 54 
54 54 54 54 54 54 54 54 54 
54 54 54 54 54 54 54 54 54 
54 54 54 54 54 54 54 54 54 
54 54 54 54 54 54 54 54 54 
54 54 54 54 54 54 54 54 54 
54 54 54 54 54 54 54 54 54 
54 54 54 54 54 54 54 54 54 
54 54 54 54 54 54 54 54 54 
54 54 54 54 54 54 54 54 54 
54 54 54 54 54 54 54 54 54 
54 54 54 54 54 54 54 54 54 
54 54 54 54 54 54 54 54 54 
54 54 54 54 54 54 54 54 54 
54 54 54 54 54 54 54 54 54 
54 54 54 54 54 54 54 54 54 
54 54 54 54 54 54 54 54 54 
54 54 54 54 54 54 54 54 54 
54 54 54 54 54 54 54 54 54 
54 54 54 54 54 54 54 54 54 
54 54 54 54 54 54 54 54 54 
54 54 54 54 54 54 54 54 54 
54 54 54 54 54 54 54 54 54 
54 54 54 54 54 54 54 54 54 
54 54 54 54 54 54 54 54 54 
54 54 54 54 54 54 54 54 54 
54 54 54 54 54 54 54 54 54 
54 54 54 54 54 54 54 54 54 
54 54 54 54 54 54 54 54 54 
54 54 54 54 54 54 54 54 54 
54 54 54 54 54 54 54 54 54 
54 54 54 54 54 54 54 54 54 
54 54 54 54 54 54 54 54 54 
54 54 54 54 54 54 54 54 54 
54 54 54 54 54 54 54 54 54 
54 54 54 54 54 54 54 54 54 
54 54 54 54 54 54 54 54 54 
54 54 54 54 54 54 54 54 54 
54 54 54 54 54 54 54 54 54 
54 54 54 54 54 54 54 54 54 
54 54 54 54 54 54 54 54 54 
54 54 54 54 54 54 54 54 54 
54 54 54 54 54 54 54 54 54 
54 54 54 54 54 54 54 54 54 
54 54 54 54 54 54 54 54 54 
54 54 54 54 54 54 54 54 54 

